;
;	File 'topol.top' was generated
;	By user: BNI (-1)
;	On host: DESKTOP-IEUDGS5
;	At date: Tue Aug 11 20:08:27 2026
;
;	This is a standalone topology file
;
;	Created by:
;	                    :-) GROMACS - gmx pdb2gmx, 2025.1 (-:
;	
;	Executable:   F:\gromacs-2025.1-SM86\gromacs-2025.1-SM86\bin\gmx.exe
;	Data prefix:  F:\gromacs-2025.1-SM86\gromacs-2025.1-SM86
;	Working dir:  F:\0wsh\asd\gromacs_md\md_alllhrc
;	Command line:
;	  gmx pdb2gmx -f complex_clean.pdb -o complex.gro -p topol.top -i posre.itp -ff amber99sb-ildn -water tip3p -ignh
;	Force field was read from the standard GROMACS share directory.
;

; Include forcefield parameters
#include "amber99sb-ildn.ff/forcefield.itp"

; Include chain topologies
#include "topol_Protein_chain_A.itp"
#include "topol_Protein_chain_B.itp"

; Include water topology
#include "amber99sb-ildn.ff/tip3p.itp"

#ifdef POSRES_WATER
; Position restraint for each water oxygen
[ position_restraints ]
;  i funct       fcx        fcy        fcz
   1    1       1000       1000       1000
#endif

; Include topology for ions
#include "amber99sb-ildn.ff/ions.itp"

[ system ]
; Name
PROTEIN-PEPTIDE COMPLEX (ALLLHRC) in water

[ molecules ]
; Compound        #mols
Protein_chain_A     1
Protein_chain_B     1
SOL         16563
NA               61
CL               53
