;
;	File 'topol_Protein_chain_B.itp' was generated
;	By user: BNI (-1)
;	On host: DESKTOP-IEUDGS5
;	At date: Thu Aug 13 08:37:40 2026
;
;	This is a include topology file
;
;	Created by:
;	                    :-) GROMACS - gmx pdb2gmx, 2025.1 (-:
;	
;	Executable:   F:\gromacs-2025.1-SM86\gromacs-2025.1-SM86\bin\gmx.exe
;	Data prefix:  F:\gromacs-2025.1-SM86\gromacs-2025.1-SM86
;	Working dir:  F:\0wsh\asd\gromacs_md\md_ylsllqr
;	Command line:
;	  gmx pdb2gmx -f complex_clean.pdb -o complex.gro -p topol.top -i posre.itp -ff amber99sb-ildn -water tip3p -ignh
;	Force field was read from the standard GROMACS share directory.
;

[ moleculetype ]
; Name            nrexcl
Protein_chain_B     3

[ atoms ]
;   nr       type  resnr residue  atom   cgnr     charge       mass  typeB    chargeB      massB
; residue   1 TYR rtp NTYR q +1.0
     1         N3      1    TYR      N      1      0.194      14.01
     2          H      1    TYR     H1      2     0.1873      1.008
     3          H      1    TYR     H2      3     0.1873      1.008
     4          H      1    TYR     H3      4     0.1873      1.008
     5         CT      1    TYR     CA      5      0.057      12.01
     6         HP      1    TYR     HA      6     0.0983      1.008
     7         CT      1    TYR     CB      7     0.0659      12.01
     8         HC      1    TYR    HB1      8     0.0102      1.008
     9         HC      1    TYR    HB2      9     0.0102      1.008
    10         CA      1    TYR     CG     10    -0.0205      12.01
    11         CA      1    TYR    CD1     11    -0.2002      12.01
    12         HA      1    TYR    HD1     12      0.172      1.008
    13         CA      1    TYR    CE1     13    -0.2239      12.01
    14         HA      1    TYR    HE1     14      0.165      1.008
    15          C      1    TYR     CZ     15     0.3139      12.01
    16         OH      1    TYR     OH     16    -0.5578         16
    17         HO      1    TYR     HH     17     0.4001      1.008
    18         CA      1    TYR    CE2     18    -0.2239      12.01
    19         HA      1    TYR    HE2     19      0.165      1.008
    20         CA      1    TYR    CD2     20    -0.2002      12.01
    21         HA      1    TYR    HD2     21      0.172      1.008
    22          C      1    TYR      C     22     0.6123      12.01
    23          O      1    TYR      O     23    -0.5713         16   ; qtot 1
; residue   2 LEU rtp LEU  q  0.0
    24          N      2    LEU      N     24    -0.4157      14.01
    25          H      2    LEU      H     25     0.2719      1.008
    26         CT      2    LEU     CA     26    -0.0518      12.01
    27         H1      2    LEU     HA     27     0.0922      1.008
    28         CT      2    LEU     CB     28    -0.1102      12.01
    29         HC      2    LEU    HB1     29     0.0457      1.008
    30         HC      2    LEU    HB2     30     0.0457      1.008
    31         CT      2    LEU     CG     31     0.3531      12.01
    32         HC      2    LEU     HG     32    -0.0361      1.008
    33         CT      2    LEU    CD1     33    -0.4121      12.01
    34         HC      2    LEU   HD11     34        0.1      1.008
    35         HC      2    LEU   HD12     35        0.1      1.008
    36         HC      2    LEU   HD13     36        0.1      1.008
    37         CT      2    LEU    CD2     37    -0.4121      12.01
    38         HC      2    LEU   HD21     38        0.1      1.008
    39         HC      2    LEU   HD22     39        0.1      1.008
    40         HC      2    LEU   HD23     40        0.1      1.008
    41          C      2    LEU      C     41     0.5973      12.01
    42          O      2    LEU      O     42    -0.5679         16   ; qtot 1
; residue   3 SER rtp SER  q  0.0
    43          N      3    SER      N     43    -0.4157      14.01
    44          H      3    SER      H     44     0.2719      1.008
    45         CT      3    SER     CA     45    -0.0249      12.01
    46         H1      3    SER     HA     46     0.0843      1.008
    47         CT      3    SER     CB     47     0.2117      12.01
    48         H1      3    SER    HB1     48     0.0352      1.008
    49         H1      3    SER    HB2     49     0.0352      1.008
    50         OH      3    SER     OG     50    -0.6546         16
    51         HO      3    SER     HG     51     0.4275      1.008
    52          C      3    SER      C     52     0.5973      12.01
    53          O      3    SER      O     53    -0.5679         16   ; qtot 1
; residue   4 LEU rtp LEU  q  0.0
    54          N      4    LEU      N     54    -0.4157      14.01
    55          H      4    LEU      H     55     0.2719      1.008
    56         CT      4    LEU     CA     56    -0.0518      12.01
    57         H1      4    LEU     HA     57     0.0922      1.008
    58         CT      4    LEU     CB     58    -0.1102      12.01
    59         HC      4    LEU    HB1     59     0.0457      1.008
    60         HC      4    LEU    HB2     60     0.0457      1.008
    61         CT      4    LEU     CG     61     0.3531      12.01
    62         HC      4    LEU     HG     62    -0.0361      1.008
    63         CT      4    LEU    CD1     63    -0.4121      12.01
    64         HC      4    LEU   HD11     64        0.1      1.008
    65         HC      4    LEU   HD12     65        0.1      1.008
    66         HC      4    LEU   HD13     66        0.1      1.008
    67         CT      4    LEU    CD2     67    -0.4121      12.01
    68         HC      4    LEU   HD21     68        0.1      1.008
    69         HC      4    LEU   HD22     69        0.1      1.008
    70         HC      4    LEU   HD23     70        0.1      1.008
    71          C      4    LEU      C     71     0.5973      12.01
    72          O      4    LEU      O     72    -0.5679         16   ; qtot 1
; residue   5 LEU rtp LEU  q  0.0
    73          N      5    LEU      N     73    -0.4157      14.01
    74          H      5    LEU      H     74     0.2719      1.008
    75         CT      5    LEU     CA     75    -0.0518      12.01
    76         H1      5    LEU     HA     76     0.0922      1.008
    77         CT      5    LEU     CB     77    -0.1102      12.01
    78         HC      5    LEU    HB1     78     0.0457      1.008
    79         HC      5    LEU    HB2     79     0.0457      1.008
    80         CT      5    LEU     CG     80     0.3531      12.01
    81         HC      5    LEU     HG     81    -0.0361      1.008
    82         CT      5    LEU    CD1     82    -0.4121      12.01
    83         HC      5    LEU   HD11     83        0.1      1.008
    84         HC      5    LEU   HD12     84        0.1      1.008
    85         HC      5    LEU   HD13     85        0.1      1.008
    86         CT      5    LEU    CD2     86    -0.4121      12.01
    87         HC      5    LEU   HD21     87        0.1      1.008
    88         HC      5    LEU   HD22     88        0.1      1.008
    89         HC      5    LEU   HD23     89        0.1      1.008
    90          C      5    LEU      C     90     0.5973      12.01
    91          O      5    LEU      O     91    -0.5679         16   ; qtot 1
; residue   6 GLN rtp GLN  q  0.0
    92          N      6    GLN      N     92    -0.4157      14.01
    93          H      6    GLN      H     93     0.2719      1.008
    94         CT      6    GLN     CA     94    -0.0031      12.01
    95         H1      6    GLN     HA     95      0.085      1.008
    96         CT      6    GLN     CB     96    -0.0036      12.01
    97         HC      6    GLN    HB1     97     0.0171      1.008
    98         HC      6    GLN    HB2     98     0.0171      1.008
    99         CT      6    GLN     CG     99    -0.0645      12.01
   100         HC      6    GLN    HG1    100     0.0352      1.008
   101         HC      6    GLN    HG2    101     0.0352      1.008
   102          C      6    GLN     CD    102     0.6951      12.01
   103          O      6    GLN    OE1    103    -0.6086         16
   104          N      6    GLN    NE2    104    -0.9407      14.01
   105          H      6    GLN   HE21    105     0.4251      1.008
   106          H      6    GLN   HE22    106     0.4251      1.008
   107          C      6    GLN      C    107     0.5973      12.01
   108          O      6    GLN      O    108    -0.5679         16   ; qtot 1
; residue   7 ARG rtp CARG q  0.0
   109          N      7    ARG      N    109    -0.3481      14.01
   110          H      7    ARG      H    110     0.2764      1.008
   111         CT      7    ARG     CA    111    -0.3068      12.01
   112         H1      7    ARG     HA    112     0.1447      1.008
   113         CT      7    ARG     CB    113    -0.0374      12.01
   114         HC      7    ARG    HB1    114     0.0371      1.008
   115         HC      7    ARG    HB2    115     0.0371      1.008
   116         CT      7    ARG     CG    116     0.0744      12.01
   117         HC      7    ARG    HG1    117     0.0185      1.008
   118         HC      7    ARG    HG2    118     0.0185      1.008
   119         CT      7    ARG     CD    119     0.1114      12.01
   120         H1      7    ARG    HD1    120     0.0468      1.008
   121         H1      7    ARG    HD2    121     0.0468      1.008
   122         N2      7    ARG     NE    122    -0.5564      14.01
   123          H      7    ARG     HE    123     0.3479      1.008
   124         CA      7    ARG     CZ    124     0.8368      12.01
   125         N2      7    ARG    NH1    125    -0.8737      14.01
   126          H      7    ARG   HH11    126     0.4493      1.008
   127          H      7    ARG   HH12    127     0.4493      1.008
   128         N2      7    ARG    NH2    128    -0.8737      14.01
   129          H      7    ARG   HH21    129     0.4493      1.008
   130          H      7    ARG   HH22    130     0.4493      1.008
   131          C      7    ARG      C    131     0.8557      12.01
   132         O2      7    ARG    OC1    132    -0.8266         16
   133         O2      7    ARG    OC2    133    -0.8266         16   ; qtot 1

[ bonds ]
;  ai    aj funct            c0            c1            c2            c3
    1     2     1 
    1     3     1 
    1     4     1 
    1     5     1 
    5     6     1 
    5     7     1 
    5    22     1 
    7     8     1 
    7     9     1 
    7    10     1 
   10    11     1 
   10    20     1 
   11    12     1 
   11    13     1 
   13    14     1 
   13    15     1 
   15    16     1 
   15    18     1 
   16    17     1 
   18    19     1 
   18    20     1 
   20    21     1 
   22    23     1 
   22    24     1 
   24    25     1 
   24    26     1 
   26    27     1 
   26    28     1 
   26    41     1 
   28    29     1 
   28    30     1 
   28    31     1 
   31    32     1 
   31    33     1 
   31    37     1 
   33    34     1 
   33    35     1 
   33    36     1 
   37    38     1 
   37    39     1 
   37    40     1 
   41    42     1 
   41    43     1 
   43    44     1 
   43    45     1 
   45    46     1 
   45    47     1 
   45    52     1 
   47    48     1 
   47    49     1 
   47    50     1 
   50    51     1 
   52    53     1 
   52    54     1 
   54    55     1 
   54    56     1 
   56    57     1 
   56    58     1 
   56    71     1 
   58    59     1 
   58    60     1 
   58    61     1 
   61    62     1 
   61    63     1 
   61    67     1 
   63    64     1 
   63    65     1 
   63    66     1 
   67    68     1 
   67    69     1 
   67    70     1 
   71    72     1 
   71    73     1 
   73    74     1 
   73    75     1 
   75    76     1 
   75    77     1 
   75    90     1 
   77    78     1 
   77    79     1 
   77    80     1 
   80    81     1 
   80    82     1 
   80    86     1 
   82    83     1 
   82    84     1 
   82    85     1 
   86    87     1 
   86    88     1 
   86    89     1 
   90    91     1 
   90    92     1 
   92    93     1 
   92    94     1 
   94    95     1 
   94    96     1 
   94   107     1 
   96    97     1 
   96    98     1 
   96    99     1 
   99   100     1 
   99   101     1 
   99   102     1 
  102   103     1 
  102   104     1 
  104   105     1 
  104   106     1 
  107   108     1 
  107   109     1 
  109   110     1 
  109   111     1 
  111   112     1 
  111   113     1 
  111   131     1 
  113   114     1 
  113   115     1 
  113   116     1 
  116   117     1 
  116   118     1 
  116   119     1 
  119   120     1 
  119   121     1 
  119   122     1 
  122   123     1 
  122   124     1 
  124   125     1 
  124   128     1 
  125   126     1 
  125   127     1 
  128   129     1 
  128   130     1 
  131   132     1 
  131   133     1 

[ pairs ]
;  ai    aj funct            c0            c1            c2            c3
    1     8     1 
    1     9     1 
    1    10     1 
    1    23     1 
    1    24     1 
    2     6     1 
    2     7     1 
    2    22     1 
    3     6     1 
    3     7     1 
    3    22     1 
    4     6     1 
    4     7     1 
    4    22     1 
    5    11     1 
    5    20     1 
    5    25     1 
    5    26     1 
    6     8     1 
    6     9     1 
    6    10     1 
    6    23     1 
    6    24     1 
    7    12     1 
    7    13     1 
    7    18     1 
    7    21     1 
    7    23     1 
    7    24     1 
    8    11     1 
    8    20     1 
    8    22     1 
    9    11     1 
    9    20     1 
    9    22     1 
   10    14     1 
   10    15     1 
   10    19     1 
   10    22     1 
   11    16     1 
   11    18     1 
   11    21     1 
   12    14     1 
   12    15     1 
   12    20     1 
   13    17     1 
   13    19     1 
   13    20     1 
   14    16     1 
   14    18     1 
   15    21     1 
   16    19     1 
   16    20     1 
   17    18     1 
   19    21     1 
   22    27     1 
   22    28     1 
   22    41     1 
   23    25     1 
   23    26     1 
   24    29     1 
   24    30     1 
   24    31     1 
   24    42     1 
   24    43     1 
   25    27     1 
   25    28     1 
   25    41     1 
   26    32     1 
   26    33     1 
   26    37     1 
   26    44     1 
   26    45     1 
   27    29     1 
   27    30     1 
   27    31     1 
   27    42     1 
   27    43     1 
   28    34     1 
   28    35     1 
   28    36     1 
   28    38     1 
   28    39     1 
   28    40     1 
   28    42     1 
   28    43     1 
   29    32     1 
   29    33     1 
   29    37     1 
   29    41     1 
   30    32     1 
   30    33     1 
   30    37     1 
   30    41     1 
   31    41     1 
   32    34     1 
   32    35     1 
   32    36     1 
   32    38     1 
   32    39     1 
   32    40     1 
   33    38     1 
   33    39     1 
   33    40     1 
   34    37     1 
   35    37     1 
   36    37     1 
   41    46     1 
   41    47     1 
   41    52     1 
   42    44     1 
   42    45     1 
   43    48     1 
   43    49     1 
   43    50     1 
   43    53     1 
   43    54     1 
   44    46     1 
   44    47     1 
   44    52     1 
   45    51     1 
   45    55     1 
   45    56     1 
   46    48     1 
   46    49     1 
   46    50     1 
   46    53     1 
   46    54     1 
   47    53     1 
   47    54     1 
   48    51     1 
   48    52     1 
   49    51     1 
   49    52     1 
   50    52     1 
   52    57     1 
   52    58     1 
   52    71     1 
   53    55     1 
   53    56     1 
   54    59     1 
   54    60     1 
   54    61     1 
   54    72     1 
   54    73     1 
   55    57     1 
   55    58     1 
   55    71     1 
   56    62     1 
   56    63     1 
   56    67     1 
   56    74     1 
   56    75     1 
   57    59     1 
   57    60     1 
   57    61     1 
   57    72     1 
   57    73     1 
   58    64     1 
   58    65     1 
   58    66     1 
   58    68     1 
   58    69     1 
   58    70     1 
   58    72     1 
   58    73     1 
   59    62     1 
   59    63     1 
   59    67     1 
   59    71     1 
   60    62     1 
   60    63     1 
   60    67     1 
   60    71     1 
   61    71     1 
   62    64     1 
   62    65     1 
   62    66     1 
   62    68     1 
   62    69     1 
   62    70     1 
   63    68     1 
   63    69     1 
   63    70     1 
   64    67     1 
   65    67     1 
   66    67     1 
   71    76     1 
   71    77     1 
   71    90     1 
   72    74     1 
   72    75     1 
   73    78     1 
   73    79     1 
   73    80     1 
   73    91     1 
   73    92     1 
   74    76     1 
   74    77     1 
   74    90     1 
   75    81     1 
   75    82     1 
   75    86     1 
   75    93     1 
   75    94     1 
   76    78     1 
   76    79     1 
   76    80     1 
   76    91     1 
   76    92     1 
   77    83     1 
   77    84     1 
   77    85     1 
   77    87     1 
   77    88     1 
   77    89     1 
   77    91     1 
   77    92     1 
   78    81     1 
   78    82     1 
   78    86     1 
   78    90     1 
   79    81     1 
   79    82     1 
   79    86     1 
   79    90     1 
   80    90     1 
   81    83     1 
   81    84     1 
   81    85     1 
   81    87     1 
   81    88     1 
   81    89     1 
   82    87     1 
   82    88     1 
   82    89     1 
   83    86     1 
   84    86     1 
   85    86     1 
   90    95     1 
   90    96     1 
   90   107     1 
   91    93     1 
   91    94     1 
   92    97     1 
   92    98     1 
   92    99     1 
   92   108     1 
   92   109     1 
   93    95     1 
   93    96     1 
   93   107     1 
   94   100     1 
   94   101     1 
   94   102     1 
   94   110     1 
   94   111     1 
   95    97     1 
   95    98     1 
   95    99     1 
   95   108     1 
   95   109     1 
   96   103     1 
   96   104     1 
   96   108     1 
   96   109     1 
   97   100     1 
   97   101     1 
   97   102     1 
   97   107     1 
   98   100     1 
   98   101     1 
   98   102     1 
   98   107     1 
   99   105     1 
   99   106     1 
   99   107     1 
  100   103     1 
  100   104     1 
  101   103     1 
  101   104     1 
  103   105     1 
  103   106     1 
  107   112     1 
  107   113     1 
  107   131     1 
  108   110     1 
  108   111     1 
  109   114     1 
  109   115     1 
  109   116     1 
  109   132     1 
  109   133     1 
  110   112     1 
  110   113     1 
  110   131     1 
  111   117     1 
  111   118     1 
  111   119     1 
  112   114     1 
  112   115     1 
  112   116     1 
  112   132     1 
  112   133     1 
  113   120     1 
  113   121     1 
  113   122     1 
  113   132     1 
  113   133     1 
  114   117     1 
  114   118     1 
  114   119     1 
  114   131     1 
  115   117     1 
  115   118     1 
  115   119     1 
  115   131     1 
  116   123     1 
  116   124     1 
  116   131     1 
  117   120     1 
  117   121     1 
  117   122     1 
  118   120     1 
  118   121     1 
  118   122     1 
  119   125     1 
  119   128     1 
  120   123     1 
  120   124     1 
  121   123     1 
  121   124     1 
  122   126     1 
  122   127     1 
  122   129     1 
  122   130     1 
  123   125     1 
  123   128     1 
  125   129     1 
  125   130     1 
  126   128     1 
  127   128     1 

[ angles ]
;  ai    aj    ak funct            c0            c1            c2            c3
    2     1     3     1 
    2     1     4     1 
    2     1     5     1 
    3     1     4     1 
    3     1     5     1 
    4     1     5     1 
    1     5     6     1 
    1     5     7     1 
    1     5    22     1 
    6     5     7     1 
    6     5    22     1 
    7     5    22     1 
    5     7     8     1 
    5     7     9     1 
    5     7    10     1 
    8     7     9     1 
    8     7    10     1 
    9     7    10     1 
    7    10    11     1 
    7    10    20     1 
   11    10    20     1 
   10    11    12     1 
   10    11    13     1 
   12    11    13     1 
   11    13    14     1 
   11    13    15     1 
   14    13    15     1 
   13    15    16     1 
   13    15    18     1 
   16    15    18     1 
   15    16    17     1 
   15    18    19     1 
   15    18    20     1 
   19    18    20     1 
   10    20    18     1 
   10    20    21     1 
   18    20    21     1 
    5    22    23     1 
    5    22    24     1 
   23    22    24     1 
   22    24    25     1 
   22    24    26     1 
   25    24    26     1 
   24    26    27     1 
   24    26    28     1 
   24    26    41     1 
   27    26    28     1 
   27    26    41     1 
   28    26    41     1 
   26    28    29     1 
   26    28    30     1 
   26    28    31     1 
   29    28    30     1 
   29    28    31     1 
   30    28    31     1 
   28    31    32     1 
   28    31    33     1 
   28    31    37     1 
   32    31    33     1 
   32    31    37     1 
   33    31    37     1 
   31    33    34     1 
   31    33    35     1 
   31    33    36     1 
   34    33    35     1 
   34    33    36     1 
   35    33    36     1 
   31    37    38     1 
   31    37    39     1 
   31    37    40     1 
   38    37    39     1 
   38    37    40     1 
   39    37    40     1 
   26    41    42     1 
   26    41    43     1 
   42    41    43     1 
   41    43    44     1 
   41    43    45     1 
   44    43    45     1 
   43    45    46     1 
   43    45    47     1 
   43    45    52     1 
   46    45    47     1 
   46    45    52     1 
   47    45    52     1 
   45    47    48     1 
   45    47    49     1 
   45    47    50     1 
   48    47    49     1 
   48    47    50     1 
   49    47    50     1 
   47    50    51     1 
   45    52    53     1 
   45    52    54     1 
   53    52    54     1 
   52    54    55     1 
   52    54    56     1 
   55    54    56     1 
   54    56    57     1 
   54    56    58     1 
   54    56    71     1 
   57    56    58     1 
   57    56    71     1 
   58    56    71     1 
   56    58    59     1 
   56    58    60     1 
   56    58    61     1 
   59    58    60     1 
   59    58    61     1 
   60    58    61     1 
   58    61    62     1 
   58    61    63     1 
   58    61    67     1 
   62    61    63     1 
   62    61    67     1 
   63    61    67     1 
   61    63    64     1 
   61    63    65     1 
   61    63    66     1 
   64    63    65     1 
   64    63    66     1 
   65    63    66     1 
   61    67    68     1 
   61    67    69     1 
   61    67    70     1 
   68    67    69     1 
   68    67    70     1 
   69    67    70     1 
   56    71    72     1 
   56    71    73     1 
   72    71    73     1 
   71    73    74     1 
   71    73    75     1 
   74    73    75     1 
   73    75    76     1 
   73    75    77     1 
   73    75    90     1 
   76    75    77     1 
   76    75    90     1 
   77    75    90     1 
   75    77    78     1 
   75    77    79     1 
   75    77    80     1 
   78    77    79     1 
   78    77    80     1 
   79    77    80     1 
   77    80    81     1 
   77    80    82     1 
   77    80    86     1 
   81    80    82     1 
   81    80    86     1 
   82    80    86     1 
   80    82    83     1 
   80    82    84     1 
   80    82    85     1 
   83    82    84     1 
   83    82    85     1 
   84    82    85     1 
   80    86    87     1 
   80    86    88     1 
   80    86    89     1 
   87    86    88     1 
   87    86    89     1 
   88    86    89     1 
   75    90    91     1 
   75    90    92     1 
   91    90    92     1 
   90    92    93     1 
   90    92    94     1 
   93    92    94     1 
   92    94    95     1 
   92    94    96     1 
   92    94   107     1 
   95    94    96     1 
   95    94   107     1 
   96    94   107     1 
   94    96    97     1 
   94    96    98     1 
   94    96    99     1 
   97    96    98     1 
   97    96    99     1 
   98    96    99     1 
   96    99   100     1 
   96    99   101     1 
   96    99   102     1 
  100    99   101     1 
  100    99   102     1 
  101    99   102     1 
   99   102   103     1 
   99   102   104     1 
  103   102   104     1 
  102   104   105     1 
  102   104   106     1 
  105   104   106     1 
   94   107   108     1 
   94   107   109     1 
  108   107   109     1 
  107   109   110     1 
  107   109   111     1 
  110   109   111     1 
  109   111   112     1 
  109   111   113     1 
  109   111   131     1 
  112   111   113     1 
  112   111   131     1 
  113   111   131     1 
  111   113   114     1 
  111   113   115     1 
  111   113   116     1 
  114   113   115     1 
  114   113   116     1 
  115   113   116     1 
  113   116   117     1 
  113   116   118     1 
  113   116   119     1 
  117   116   118     1 
  117   116   119     1 
  118   116   119     1 
  116   119   120     1 
  116   119   121     1 
  116   119   122     1 
  120   119   121     1 
  120   119   122     1 
  121   119   122     1 
  119   122   123     1 
  119   122   124     1 
  123   122   124     1 
  122   124   125     1 
  122   124   128     1 
  125   124   128     1 
  124   125   126     1 
  124   125   127     1 
  126   125   127     1 
  124   128   129     1 
  124   128   130     1 
  129   128   130     1 
  111   131   132     1 
  111   131   133     1 
  132   131   133     1 

[ dihedrals ]
;  ai    aj    ak    al funct            c0            c1            c2            c3            c4            c5
    2     1     5     6     9 
    2     1     5     7     9 
    2     1     5    22     9 
    3     1     5     6     9 
    3     1     5     7     9 
    3     1     5    22     9 
    4     1     5     6     9 
    4     1     5     7     9 
    4     1     5    22     9 
    1     5     7     8     9 
    1     5     7     9     9 
    1     5     7    10     9 
    6     5     7     8     9 
    6     5     7     9     9 
    6     5     7    10     9 
   22     5     7     8     9 
   22     5     7     9     9 
   22     5     7    10     9 
    1     5    22    23     9 
    1     5    22    24     9 
    6     5    22    23     9 
    6     5    22    24     9 
    7     5    22    23     9 
    7     5    22    24     9 
    5     7    10    11     9 
    5     7    10    20     9 
    8     7    10    11     9 
    8     7    10    20     9 
    9     7    10    11     9 
    9     7    10    20     9 
    7    10    11    12     9 
    7    10    11    13     9 
   20    10    11    12     9 
   20    10    11    13     9 
    7    10    20    18     9 
    7    10    20    21     9 
   11    10    20    18     9 
   11    10    20    21     9 
   10    11    13    14     9 
   10    11    13    15     9 
   12    11    13    14     9 
   12    11    13    15     9 
   11    13    15    16     9 
   11    13    15    18     9 
   14    13    15    16     9 
   14    13    15    18     9 
   13    15    16    17     9 
   18    15    16    17     9 
   13    15    18    19     9 
   13    15    18    20     9 
   16    15    18    19     9 
   16    15    18    20     9 
   15    18    20    10     9 
   15    18    20    21     9 
   19    18    20    10     9 
   19    18    20    21     9 
    5    22    24    25     9 
    5    22    24    26     9 
   23    22    24    25     9 
   23    22    24    26     9 
   22    24    26    27     9 
   22    24    26    28     9 
   22    24    26    41     9 
   25    24    26    27     9 
   25    24    26    28     9 
   25    24    26    41     9 
   41    26    28    31     9    torsion_LEU_C_CA_CB_CG_mult1
   41    26    28    31     9    torsion_LEU_C_CA_CB_CG_mult2
   41    26    28    31     9    torsion_LEU_C_CA_CB_CG_mult3
   24    26    28    29     9 
   24    26    28    30     9 
   24    26    28    31     9 
   27    26    28    29     9 
   27    26    28    30     9 
   27    26    28    31     9 
   41    26    28    29     9 
   41    26    28    30     9 
   24    26    41    42     9 
   24    26    41    43     9 
   27    26    41    42     9 
   27    26    41    43     9 
   28    26    41    42     9 
   28    26    41    43     9 
   26    28    31    32     9 
   26    28    31    33     9 
   26    28    31    37     9 
   29    28    31    32     9 
   29    28    31    33     9 
   29    28    31    37     9 
   30    28    31    32     9 
   30    28    31    33     9 
   30    28    31    37     9 
   28    31    33    34     9 
   28    31    33    35     9 
   28    31    33    36     9 
   32    31    33    34     9 
   32    31    33    35     9 
   32    31    33    36     9 
   37    31    33    34     9 
   37    31    33    35     9 
   37    31    33    36     9 
   28    31    37    38     9 
   28    31    37    39     9 
   28    31    37    40     9 
   32    31    37    38     9 
   32    31    37    39     9 
   32    31    37    40     9 
   33    31    37    38     9 
   33    31    37    39     9 
   33    31    37    40     9 
   26    41    43    44     9 
   26    41    43    45     9 
   42    41    43    44     9 
   42    41    43    45     9 
   41    43    45    46     9 
   41    43    45    47     9 
   41    43    45    52     9 
   44    43    45    46     9 
   44    43    45    47     9 
   44    43    45    52     9 
   43    45    47    48     9 
   43    45    47    49     9 
   43    45    47    50     9 
   46    45    47    48     9 
   46    45    47    49     9 
   46    45    47    50     9 
   52    45    47    48     9 
   52    45    47    49     9 
   52    45    47    50     9 
   43    45    52    53     9 
   43    45    52    54     9 
   46    45    52    53     9 
   46    45    52    54     9 
   47    45    52    53     9 
   47    45    52    54     9 
   45    47    50    51     9 
   48    47    50    51     9 
   49    47    50    51     9 
   45    52    54    55     9 
   45    52    54    56     9 
   53    52    54    55     9 
   53    52    54    56     9 
   52    54    56    57     9 
   52    54    56    58     9 
   52    54    56    71     9 
   55    54    56    57     9 
   55    54    56    58     9 
   55    54    56    71     9 
   71    56    58    61     9    torsion_LEU_C_CA_CB_CG_mult1
   71    56    58    61     9    torsion_LEU_C_CA_CB_CG_mult2
   71    56    58    61     9    torsion_LEU_C_CA_CB_CG_mult3
   54    56    58    59     9 
   54    56    58    60     9 
   54    56    58    61     9 
   57    56    58    59     9 
   57    56    58    60     9 
   57    56    58    61     9 
   71    56    58    59     9 
   71    56    58    60     9 
   54    56    71    72     9 
   54    56    71    73     9 
   57    56    71    72     9 
   57    56    71    73     9 
   58    56    71    72     9 
   58    56    71    73     9 
   56    58    61    62     9 
   56    58    61    63     9 
   56    58    61    67     9 
   59    58    61    62     9 
   59    58    61    63     9 
   59    58    61    67     9 
   60    58    61    62     9 
   60    58    61    63     9 
   60    58    61    67     9 
   58    61    63    64     9 
   58    61    63    65     9 
   58    61    63    66     9 
   62    61    63    64     9 
   62    61    63    65     9 
   62    61    63    66     9 
   67    61    63    64     9 
   67    61    63    65     9 
   67    61    63    66     9 
   58    61    67    68     9 
   58    61    67    69     9 
   58    61    67    70     9 
   62    61    67    68     9 
   62    61    67    69     9 
   62    61    67    70     9 
   63    61    67    68     9 
   63    61    67    69     9 
   63    61    67    70     9 
   56    71    73    74     9 
   56    71    73    75     9 
   72    71    73    74     9 
   72    71    73    75     9 
   71    73    75    76     9 
   71    73    75    77     9 
   71    73    75    90     9 
   74    73    75    76     9 
   74    73    75    77     9 
   74    73    75    90     9 
   90    75    77    80     9    torsion_LEU_C_CA_CB_CG_mult1
   90    75    77    80     9    torsion_LEU_C_CA_CB_CG_mult2
   90    75    77    80     9    torsion_LEU_C_CA_CB_CG_mult3
   73    75    77    78     9 
   73    75    77    79     9 
   73    75    77    80     9 
   76    75    77    78     9 
   76    75    77    79     9 
   76    75    77    80     9 
   90    75    77    78     9 
   90    75    77    79     9 
   73    75    90    91     9 
   73    75    90    92     9 
   76    75    90    91     9 
   76    75    90    92     9 
   77    75    90    91     9 
   77    75    90    92     9 
   75    77    80    81     9 
   75    77    80    82     9 
   75    77    80    86     9 
   78    77    80    81     9 
   78    77    80    82     9 
   78    77    80    86     9 
   79    77    80    81     9 
   79    77    80    82     9 
   79    77    80    86     9 
   77    80    82    83     9 
   77    80    82    84     9 
   77    80    82    85     9 
   81    80    82    83     9 
   81    80    82    84     9 
   81    80    82    85     9 
   86    80    82    83     9 
   86    80    82    84     9 
   86    80    82    85     9 
   77    80    86    87     9 
   77    80    86    88     9 
   77    80    86    89     9 
   81    80    86    87     9 
   81    80    86    88     9 
   81    80    86    89     9 
   82    80    86    87     9 
   82    80    86    88     9 
   82    80    86    89     9 
   75    90    92    93     9 
   75    90    92    94     9 
   91    90    92    93     9 
   91    90    92    94     9 
   90    92    94    95     9 
   90    92    94    96     9 
   90    92    94   107     9 
   93    92    94    95     9 
   93    92    94    96     9 
   93    92    94   107     9 
   92    94    96    97     9 
   92    94    96    98     9 
   92    94    96    99     9 
   95    94    96    97     9 
   95    94    96    98     9 
   95    94    96    99     9 
  107    94    96    97     9 
  107    94    96    98     9 
  107    94    96    99     9 
   92    94   107   108     9 
   92    94   107   109     9 
   95    94   107   108     9 
   95    94   107   109     9 
   96    94   107   108     9 
   96    94   107   109     9 
   94    96    99   100     9 
   94    96    99   101     9 
   94    96    99   102     9 
   97    96    99   100     9 
   97    96    99   101     9 
   97    96    99   102     9 
   98    96    99   100     9 
   98    96    99   101     9 
   98    96    99   102     9 
   96    99   102   103     9 
   96    99   102   104     9 
  100    99   102   103     9 
  100    99   102   104     9 
  101    99   102   103     9 
  101    99   102   104     9 
   99   102   104   105     9 
   99   102   104   106     9 
  103   102   104   105     9 
  103   102   104   106     9 
   94   107   109   110     9 
   94   107   109   111     9 
  108   107   109   110     9 
  108   107   109   111     9 
  107   109   111   112     9 
  107   109   111   113     9 
  107   109   111   131     9 
  110   109   111   112     9 
  110   109   111   113     9 
  110   109   111   131     9 
  109   111   113   114     9 
  109   111   113   115     9 
  109   111   113   116     9 
  112   111   113   114     9 
  112   111   113   115     9 
  112   111   113   116     9 
  131   111   113   114     9 
  131   111   113   115     9 
  131   111   113   116     9 
  109   111   131   132     9 
  109   111   131   133     9 
  112   111   131   132     9 
  112   111   131   133     9 
  113   111   131   132     9 
  113   111   131   133     9 
  111   113   116   117     9 
  111   113   116   118     9 
  111   113   116   119     9 
  114   113   116   117     9 
  114   113   116   118     9 
  114   113   116   119     9 
  115   113   116   117     9 
  115   113   116   118     9 
  115   113   116   119     9 
  113   116   119   120     9 
  113   116   119   121     9 
  113   116   119   122     9 
  117   116   119   120     9 
  117   116   119   121     9 
  117   116   119   122     9 
  118   116   119   120     9 
  118   116   119   121     9 
  118   116   119   122     9 
  116   119   122   123     9 
  116   119   122   124     9 
  120   119   122   123     9 
  120   119   122   124     9 
  121   119   122   123     9 
  121   119   122   124     9 
  119   122   124   125     9 
  119   122   124   128     9 
  123   122   124   125     9 
  123   122   124   128     9 
  122   124   125   126     9 
  122   124   125   127     9 
  128   124   125   126     9 
  128   124   125   127     9 
  122   124   128   129     9 
  122   124   128   130     9 
  125   124   128   129     9 
  125   124   128   130     9 

[ dihedrals ]
;  ai    aj    ak    al funct            c0            c1            c2            c3
    5    24    22    23     4 
    7    10    20    11     4 
   10    13    11    12     4 
   10    18    20    21     4 
   11    15    13    14     4 
   13    18    15    16     4 
   15    20    18    19     4 
   22    26    24    25     4 
   26    43    41    42     4 
   41    45    43    44     4 
   45    54    52    53     4 
   52    56    54    55     4 
   56    73    71    72     4 
   71    75    73    74     4 
   75    92    90    91     4 
   90    94    92    93     4 
   94   109   107   108     4 
   99   104   102   103     4 
  102   105   104   106     4 
  107   111   109   110     4 
  111   132   131   133     4 
  119   124   122   123     4 
  122   125   124   128     4 
  124   126   125   127     4 
  124   129   128   130     4 

; Include Position restraint file
#ifdef POSRES
#include "posre_Protein_chain_B.itp"
#endif

