;
;	File 'topol_Protein_chain_B.itp' was generated
;	By user: BNI (-1)
;	On host: DESKTOP-IEUDGS5
;	At date: Fri Aug 14 02:16:44 2026
;
;	This is a include topology file
;
;	Created by:
;	                    :-) GROMACS - gmx pdb2gmx, 2025.1 (-:
;	
;	Executable:   F:\gromacs-2025.1-SM86\gromacs-2025.1-SM86\bin\gmx.exe
;	Data prefix:  F:\gromacs-2025.1-SM86\gromacs-2025.1-SM86
;	Working dir:  F:\0wsh\asd\gromacs_md\md_ache
;	Command line:
;	  gmx pdb2gmx -f complex_clean.pdb -o complex.gro -p topol.top -i posre.itp -ff amber99sb-ildn -water tip3p -ignh
;	Force field was read from the standard GROMACS share directory.
;

[ moleculetype ]
; Name            nrexcl
Protein_chain_B     3

[ atoms ]
;   nr       type  resnr residue  atom   cgnr     charge       mass  typeB    chargeB      massB
; residue   1 ALA rtp NALA q +1.0
     1         N3      1    ALA      N      1     0.1414      14.01
     2          H      1    ALA     H1      2     0.1997      1.008
     3          H      1    ALA     H2      3     0.1997      1.008
     4          H      1    ALA     H3      4     0.1997      1.008
     5         CT      1    ALA     CA      5     0.0962      12.01
     6         HP      1    ALA     HA      6     0.0889      1.008
     7         CT      1    ALA     CB      7    -0.0597      12.01
     8         HC      1    ALA    HB1      8       0.03      1.008
     9         HC      1    ALA    HB2      9       0.03      1.008
    10         HC      1    ALA    HB3     10       0.03      1.008
    11          C      1    ALA      C     11     0.6163      12.01
    12          O      1    ALA      O     12    -0.5722         16   ; qtot 1
; residue   2 LEU rtp LEU  q  0.0
    13          N      2    LEU      N     13    -0.4157      14.01
    14          H      2    LEU      H     14     0.2719      1.008
    15         CT      2    LEU     CA     15    -0.0518      12.01
    16         H1      2    LEU     HA     16     0.0922      1.008
    17         CT      2    LEU     CB     17    -0.1102      12.01
    18         HC      2    LEU    HB1     18     0.0457      1.008
    19         HC      2    LEU    HB2     19     0.0457      1.008
    20         CT      2    LEU     CG     20     0.3531      12.01
    21         HC      2    LEU     HG     21    -0.0361      1.008
    22         CT      2    LEU    CD1     22    -0.4121      12.01
    23         HC      2    LEU   HD11     23        0.1      1.008
    24         HC      2    LEU   HD12     24        0.1      1.008
    25         HC      2    LEU   HD13     25        0.1      1.008
    26         CT      2    LEU    CD2     26    -0.4121      12.01
    27         HC      2    LEU   HD21     27        0.1      1.008
    28         HC      2    LEU   HD22     28        0.1      1.008
    29         HC      2    LEU   HD23     29        0.1      1.008
    30          C      2    LEU      C     30     0.5973      12.01
    31          O      2    LEU      O     31    -0.5679         16   ; qtot 1
; residue   3 LEU rtp LEU  q  0.0
    32          N      3    LEU      N     32    -0.4157      14.01
    33          H      3    LEU      H     33     0.2719      1.008
    34         CT      3    LEU     CA     34    -0.0518      12.01
    35         H1      3    LEU     HA     35     0.0922      1.008
    36         CT      3    LEU     CB     36    -0.1102      12.01
    37         HC      3    LEU    HB1     37     0.0457      1.008
    38         HC      3    LEU    HB2     38     0.0457      1.008
    39         CT      3    LEU     CG     39     0.3531      12.01
    40         HC      3    LEU     HG     40    -0.0361      1.008
    41         CT      3    LEU    CD1     41    -0.4121      12.01
    42         HC      3    LEU   HD11     42        0.1      1.008
    43         HC      3    LEU   HD12     43        0.1      1.008
    44         HC      3    LEU   HD13     44        0.1      1.008
    45         CT      3    LEU    CD2     45    -0.4121      12.01
    46         HC      3    LEU   HD21     46        0.1      1.008
    47         HC      3    LEU   HD22     47        0.1      1.008
    48         HC      3    LEU   HD23     48        0.1      1.008
    49          C      3    LEU      C     49     0.5973      12.01
    50          O      3    LEU      O     50    -0.5679         16   ; qtot 1
; residue   4 LEU rtp LEU  q  0.0
    51          N      4    LEU      N     51    -0.4157      14.01
    52          H      4    LEU      H     52     0.2719      1.008
    53         CT      4    LEU     CA     53    -0.0518      12.01
    54         H1      4    LEU     HA     54     0.0922      1.008
    55         CT      4    LEU     CB     55    -0.1102      12.01
    56         HC      4    LEU    HB1     56     0.0457      1.008
    57         HC      4    LEU    HB2     57     0.0457      1.008
    58         CT      4    LEU     CG     58     0.3531      12.01
    59         HC      4    LEU     HG     59    -0.0361      1.008
    60         CT      4    LEU    CD1     60    -0.4121      12.01
    61         HC      4    LEU   HD11     61        0.1      1.008
    62         HC      4    LEU   HD12     62        0.1      1.008
    63         HC      4    LEU   HD13     63        0.1      1.008
    64         CT      4    LEU    CD2     64    -0.4121      12.01
    65         HC      4    LEU   HD21     65        0.1      1.008
    66         HC      4    LEU   HD22     66        0.1      1.008
    67         HC      4    LEU   HD23     67        0.1      1.008
    68          C      4    LEU      C     68     0.5973      12.01
    69          O      4    LEU      O     69    -0.5679         16   ; qtot 1
; residue   5 HIS rtp HIE  q  0.0
    70          N      5    HIS      N     70    -0.4157      14.01
    71          H      5    HIS      H     71     0.2719      1.008
    72         CT      5    HIS     CA     72    -0.0581      12.01
    73         H1      5    HIS     HA     73      0.136      1.008
    74         CT      5    HIS     CB     74    -0.0074      12.01
    75         HC      5    HIS    HB1     75     0.0367      1.008
    76         HC      5    HIS    HB2     76     0.0367      1.008
    77         CC      5    HIS     CG     77     0.1868      12.01
    78         NB      5    HIS    ND1     78    -0.5432      14.01
    79         CR      5    HIS    CE1     79     0.1635      12.01
    80         H5      5    HIS    HE1     80     0.1435      1.008
    81         NA      5    HIS    NE2     81    -0.2795      14.01
    82          H      5    HIS    HE2     82     0.3339      1.008
    83         CW      5    HIS    CD2     83    -0.2207      12.01
    84         H4      5    HIS    HD2     84     0.1862      1.008
    85          C      5    HIS      C     85     0.5973      12.01
    86          O      5    HIS      O     86    -0.5679         16   ; qtot 1
; residue   6 ARG rtp ARG  q +1.0
    87          N      6    ARG      N     87    -0.3479      14.01
    88          H      6    ARG      H     88     0.2747      1.008
    89         CT      6    ARG     CA     89    -0.2637      12.01
    90         H1      6    ARG     HA     90      0.156      1.008
    91         CT      6    ARG     CB     91    -0.0007      12.01
    92         HC      6    ARG    HB1     92     0.0327      1.008
    93         HC      6    ARG    HB2     93     0.0327      1.008
    94         CT      6    ARG     CG     94      0.039      12.01
    95         HC      6    ARG    HG1     95     0.0285      1.008
    96         HC      6    ARG    HG2     96     0.0285      1.008
    97         CT      6    ARG     CD     97     0.0486      12.01
    98         H1      6    ARG    HD1     98     0.0687      1.008
    99         H1      6    ARG    HD2     99     0.0687      1.008
   100         N2      6    ARG     NE    100    -0.5295      14.01
   101          H      6    ARG     HE    101     0.3456      1.008
   102         CA      6    ARG     CZ    102     0.8076      12.01
   103         N2      6    ARG    NH1    103    -0.8627      14.01
   104          H      6    ARG   HH11    104     0.4478      1.008
   105          H      6    ARG   HH12    105     0.4478      1.008
   106         N2      6    ARG    NH2    106    -0.8627      14.01
   107          H      6    ARG   HH21    107     0.4478      1.008
   108          H      6    ARG   HH22    108     0.4478      1.008
   109          C      6    ARG      C    109     0.7341      12.01
   110          O      6    ARG      O    110    -0.5894         16   ; qtot 2
; residue   7 CYS rtp CCYS q -1.0
   111          N      7    CYS      N    111    -0.3821      14.01
   112          H      7    CYS      H    112     0.2681      1.008
   113         CT      7    CYS     CA    113    -0.1635      12.01
   114         H1      7    CYS     HA    114     0.1396      1.008
   115         CT      7    CYS     CB    115    -0.1996      12.01
   116         H1      7    CYS    HB1    116     0.1437      1.008
   117         H1      7    CYS    HB2    117     0.1437      1.008
   118         SH      7    CYS     SG    118    -0.3102      32.06
   119         HS      7    CYS     HG    119     0.2068      1.008
   120          C      7    CYS      C    120     0.7497      12.01
   121         O2      7    CYS    OC1    121    -0.7981         16
   122         O2      7    CYS    OC2    122    -0.7981         16   ; qtot 1

[ bonds ]
;  ai    aj funct            c0            c1            c2            c3
    1     2     1 
    1     3     1 
    1     4     1 
    1     5     1 
    5     6     1 
    5     7     1 
    5    11     1 
    7     8     1 
    7     9     1 
    7    10     1 
   11    12     1 
   11    13     1 
   13    14     1 
   13    15     1 
   15    16     1 
   15    17     1 
   15    30     1 
   17    18     1 
   17    19     1 
   17    20     1 
   20    21     1 
   20    22     1 
   20    26     1 
   22    23     1 
   22    24     1 
   22    25     1 
   26    27     1 
   26    28     1 
   26    29     1 
   30    31     1 
   30    32     1 
   32    33     1 
   32    34     1 
   34    35     1 
   34    36     1 
   34    49     1 
   36    37     1 
   36    38     1 
   36    39     1 
   39    40     1 
   39    41     1 
   39    45     1 
   41    42     1 
   41    43     1 
   41    44     1 
   45    46     1 
   45    47     1 
   45    48     1 
   49    50     1 
   49    51     1 
   51    52     1 
   51    53     1 
   53    54     1 
   53    55     1 
   53    68     1 
   55    56     1 
   55    57     1 
   55    58     1 
   58    59     1 
   58    60     1 
   58    64     1 
   60    61     1 
   60    62     1 
   60    63     1 
   64    65     1 
   64    66     1 
   64    67     1 
   68    69     1 
   68    70     1 
   70    71     1 
   70    72     1 
   72    73     1 
   72    74     1 
   72    85     1 
   74    75     1 
   74    76     1 
   74    77     1 
   77    78     1 
   77    83     1 
   78    79     1 
   79    80     1 
   79    81     1 
   81    82     1 
   81    83     1 
   83    84     1 
   85    86     1 
   85    87     1 
   87    88     1 
   87    89     1 
   89    90     1 
   89    91     1 
   89   109     1 
   91    92     1 
   91    93     1 
   91    94     1 
   94    95     1 
   94    96     1 
   94    97     1 
   97    98     1 
   97    99     1 
   97   100     1 
  100   101     1 
  100   102     1 
  102   103     1 
  102   106     1 
  103   104     1 
  103   105     1 
  106   107     1 
  106   108     1 
  109   110     1 
  109   111     1 
  111   112     1 
  111   113     1 
  113   114     1 
  113   115     1 
  113   120     1 
  115   116     1 
  115   117     1 
  115   118     1 
  118   119     1 
  120   121     1 
  120   122     1 

[ pairs ]
;  ai    aj funct            c0            c1            c2            c3
    1     8     1 
    1     9     1 
    1    10     1 
    1    12     1 
    1    13     1 
    2     6     1 
    2     7     1 
    2    11     1 
    3     6     1 
    3     7     1 
    3    11     1 
    4     6     1 
    4     7     1 
    4    11     1 
    5    14     1 
    5    15     1 
    6     8     1 
    6     9     1 
    6    10     1 
    6    12     1 
    6    13     1 
    7    12     1 
    7    13     1 
    8    11     1 
    9    11     1 
   10    11     1 
   11    16     1 
   11    17     1 
   11    30     1 
   12    14     1 
   12    15     1 
   13    18     1 
   13    19     1 
   13    20     1 
   13    31     1 
   13    32     1 
   14    16     1 
   14    17     1 
   14    30     1 
   15    21     1 
   15    22     1 
   15    26     1 
   15    33     1 
   15    34     1 
   16    18     1 
   16    19     1 
   16    20     1 
   16    31     1 
   16    32     1 
   17    23     1 
   17    24     1 
   17    25     1 
   17    27     1 
   17    28     1 
   17    29     1 
   17    31     1 
   17    32     1 
   18    21     1 
   18    22     1 
   18    26     1 
   18    30     1 
   19    21     1 
   19    22     1 
   19    26     1 
   19    30     1 
   20    30     1 
   21    23     1 
   21    24     1 
   21    25     1 
   21    27     1 
   21    28     1 
   21    29     1 
   22    27     1 
   22    28     1 
   22    29     1 
   23    26     1 
   24    26     1 
   25    26     1 
   30    35     1 
   30    36     1 
   30    49     1 
   31    33     1 
   31    34     1 
   32    37     1 
   32    38     1 
   32    39     1 
   32    50     1 
   32    51     1 
   33    35     1 
   33    36     1 
   33    49     1 
   34    40     1 
   34    41     1 
   34    45     1 
   34    52     1 
   34    53     1 
   35    37     1 
   35    38     1 
   35    39     1 
   35    50     1 
   35    51     1 
   36    42     1 
   36    43     1 
   36    44     1 
   36    46     1 
   36    47     1 
   36    48     1 
   36    50     1 
   36    51     1 
   37    40     1 
   37    41     1 
   37    45     1 
   37    49     1 
   38    40     1 
   38    41     1 
   38    45     1 
   38    49     1 
   39    49     1 
   40    42     1 
   40    43     1 
   40    44     1 
   40    46     1 
   40    47     1 
   40    48     1 
   41    46     1 
   41    47     1 
   41    48     1 
   42    45     1 
   43    45     1 
   44    45     1 
   49    54     1 
   49    55     1 
   49    68     1 
   50    52     1 
   50    53     1 
   51    56     1 
   51    57     1 
   51    58     1 
   51    69     1 
   51    70     1 
   52    54     1 
   52    55     1 
   52    68     1 
   53    59     1 
   53    60     1 
   53    64     1 
   53    71     1 
   53    72     1 
   54    56     1 
   54    57     1 
   54    58     1 
   54    69     1 
   54    70     1 
   55    61     1 
   55    62     1 
   55    63     1 
   55    65     1 
   55    66     1 
   55    67     1 
   55    69     1 
   55    70     1 
   56    59     1 
   56    60     1 
   56    64     1 
   56    68     1 
   57    59     1 
   57    60     1 
   57    64     1 
   57    68     1 
   58    68     1 
   59    61     1 
   59    62     1 
   59    63     1 
   59    65     1 
   59    66     1 
   59    67     1 
   60    65     1 
   60    66     1 
   60    67     1 
   61    64     1 
   62    64     1 
   63    64     1 
   68    73     1 
   68    74     1 
   68    85     1 
   69    71     1 
   69    72     1 
   70    75     1 
   70    76     1 
   70    77     1 
   70    86     1 
   70    87     1 
   71    73     1 
   71    74     1 
   71    85     1 
   72    78     1 
   72    83     1 
   72    88     1 
   72    89     1 
   73    75     1 
   73    76     1 
   73    77     1 
   73    86     1 
   73    87     1 
   74    79     1 
   74    81     1 
   74    84     1 
   74    86     1 
   74    87     1 
   75    78     1 
   75    83     1 
   75    85     1 
   76    78     1 
   76    83     1 
   76    85     1 
   77    80     1 
   77    82     1 
   77    85     1 
   78    82     1 
   78    84     1 
   79    84     1 
   80    82     1 
   80    83     1 
   82    84     1 
   85    90     1 
   85    91     1 
   85   109     1 
   86    88     1 
   86    89     1 
   87    92     1 
   87    93     1 
   87    94     1 
   87   110     1 
   87   111     1 
   88    90     1 
   88    91     1 
   88   109     1 
   89    95     1 
   89    96     1 
   89    97     1 
   89   112     1 
   89   113     1 
   90    92     1 
   90    93     1 
   90    94     1 
   90   110     1 
   90   111     1 
   91    98     1 
   91    99     1 
   91   100     1 
   91   110     1 
   91   111     1 
   92    95     1 
   92    96     1 
   92    97     1 
   92   109     1 
   93    95     1 
   93    96     1 
   93    97     1 
   93   109     1 
   94   101     1 
   94   102     1 
   94   109     1 
   95    98     1 
   95    99     1 
   95   100     1 
   96    98     1 
   96    99     1 
   96   100     1 
   97   103     1 
   97   106     1 
   98   101     1 
   98   102     1 
   99   101     1 
   99   102     1 
  100   104     1 
  100   105     1 
  100   107     1 
  100   108     1 
  101   103     1 
  101   106     1 
  103   107     1 
  103   108     1 
  104   106     1 
  105   106     1 
  109   114     1 
  109   115     1 
  109   120     1 
  110   112     1 
  110   113     1 
  111   116     1 
  111   117     1 
  111   118     1 
  111   121     1 
  111   122     1 
  112   114     1 
  112   115     1 
  112   120     1 
  113   119     1 
  114   116     1 
  114   117     1 
  114   118     1 
  114   121     1 
  114   122     1 
  115   121     1 
  115   122     1 
  116   119     1 
  116   120     1 
  117   119     1 
  117   120     1 
  118   120     1 

[ angles ]
;  ai    aj    ak funct            c0            c1            c2            c3
    2     1     3     1 
    2     1     4     1 
    2     1     5     1 
    3     1     4     1 
    3     1     5     1 
    4     1     5     1 
    1     5     6     1 
    1     5     7     1 
    1     5    11     1 
    6     5     7     1 
    6     5    11     1 
    7     5    11     1 
    5     7     8     1 
    5     7     9     1 
    5     7    10     1 
    8     7     9     1 
    8     7    10     1 
    9     7    10     1 
    5    11    12     1 
    5    11    13     1 
   12    11    13     1 
   11    13    14     1 
   11    13    15     1 
   14    13    15     1 
   13    15    16     1 
   13    15    17     1 
   13    15    30     1 
   16    15    17     1 
   16    15    30     1 
   17    15    30     1 
   15    17    18     1 
   15    17    19     1 
   15    17    20     1 
   18    17    19     1 
   18    17    20     1 
   19    17    20     1 
   17    20    21     1 
   17    20    22     1 
   17    20    26     1 
   21    20    22     1 
   21    20    26     1 
   22    20    26     1 
   20    22    23     1 
   20    22    24     1 
   20    22    25     1 
   23    22    24     1 
   23    22    25     1 
   24    22    25     1 
   20    26    27     1 
   20    26    28     1 
   20    26    29     1 
   27    26    28     1 
   27    26    29     1 
   28    26    29     1 
   15    30    31     1 
   15    30    32     1 
   31    30    32     1 
   30    32    33     1 
   30    32    34     1 
   33    32    34     1 
   32    34    35     1 
   32    34    36     1 
   32    34    49     1 
   35    34    36     1 
   35    34    49     1 
   36    34    49     1 
   34    36    37     1 
   34    36    38     1 
   34    36    39     1 
   37    36    38     1 
   37    36    39     1 
   38    36    39     1 
   36    39    40     1 
   36    39    41     1 
   36    39    45     1 
   40    39    41     1 
   40    39    45     1 
   41    39    45     1 
   39    41    42     1 
   39    41    43     1 
   39    41    44     1 
   42    41    43     1 
   42    41    44     1 
   43    41    44     1 
   39    45    46     1 
   39    45    47     1 
   39    45    48     1 
   46    45    47     1 
   46    45    48     1 
   47    45    48     1 
   34    49    50     1 
   34    49    51     1 
   50    49    51     1 
   49    51    52     1 
   49    51    53     1 
   52    51    53     1 
   51    53    54     1 
   51    53    55     1 
   51    53    68     1 
   54    53    55     1 
   54    53    68     1 
   55    53    68     1 
   53    55    56     1 
   53    55    57     1 
   53    55    58     1 
   56    55    57     1 
   56    55    58     1 
   57    55    58     1 
   55    58    59     1 
   55    58    60     1 
   55    58    64     1 
   59    58    60     1 
   59    58    64     1 
   60    58    64     1 
   58    60    61     1 
   58    60    62     1 
   58    60    63     1 
   61    60    62     1 
   61    60    63     1 
   62    60    63     1 
   58    64    65     1 
   58    64    66     1 
   58    64    67     1 
   65    64    66     1 
   65    64    67     1 
   66    64    67     1 
   53    68    69     1 
   53    68    70     1 
   69    68    70     1 
   68    70    71     1 
   68    70    72     1 
   71    70    72     1 
   70    72    73     1 
   70    72    74     1 
   70    72    85     1 
   73    72    74     1 
   73    72    85     1 
   74    72    85     1 
   72    74    75     1 
   72    74    76     1 
   72    74    77     1 
   75    74    76     1 
   75    74    77     1 
   76    74    77     1 
   74    77    78     1 
   74    77    83     1 
   78    77    83     1 
   77    78    79     1 
   78    79    80     1 
   78    79    81     1 
   80    79    81     1 
   79    81    82     1 
   79    81    83     1 
   82    81    83     1 
   77    83    81     1 
   77    83    84     1 
   81    83    84     1 
   72    85    86     1 
   72    85    87     1 
   86    85    87     1 
   85    87    88     1 
   85    87    89     1 
   88    87    89     1 
   87    89    90     1 
   87    89    91     1 
   87    89   109     1 
   90    89    91     1 
   90    89   109     1 
   91    89   109     1 
   89    91    92     1 
   89    91    93     1 
   89    91    94     1 
   92    91    93     1 
   92    91    94     1 
   93    91    94     1 
   91    94    95     1 
   91    94    96     1 
   91    94    97     1 
   95    94    96     1 
   95    94    97     1 
   96    94    97     1 
   94    97    98     1 
   94    97    99     1 
   94    97   100     1 
   98    97    99     1 
   98    97   100     1 
   99    97   100     1 
   97   100   101     1 
   97   100   102     1 
  101   100   102     1 
  100   102   103     1 
  100   102   106     1 
  103   102   106     1 
  102   103   104     1 
  102   103   105     1 
  104   103   105     1 
  102   106   107     1 
  102   106   108     1 
  107   106   108     1 
   89   109   110     1 
   89   109   111     1 
  110   109   111     1 
  109   111   112     1 
  109   111   113     1 
  112   111   113     1 
  111   113   114     1 
  111   113   115     1 
  111   113   120     1 
  114   113   115     1 
  114   113   120     1 
  115   113   120     1 
  113   115   116     1 
  113   115   117     1 
  113   115   118     1 
  116   115   117     1 
  116   115   118     1 
  117   115   118     1 
  115   118   119     1 
  113   120   121     1 
  113   120   122     1 
  121   120   122     1 

[ dihedrals ]
;  ai    aj    ak    al funct            c0            c1            c2            c3            c4            c5
    2     1     5     6     9 
    2     1     5     7     9 
    2     1     5    11     9 
    3     1     5     6     9 
    3     1     5     7     9 
    3     1     5    11     9 
    4     1     5     6     9 
    4     1     5     7     9 
    4     1     5    11     9 
    1     5     7     8     9 
    1     5     7     9     9 
    1     5     7    10     9 
    6     5     7     8     9 
    6     5     7     9     9 
    6     5     7    10     9 
   11     5     7     8     9 
   11     5     7     9     9 
   11     5     7    10     9 
    1     5    11    12     9 
    1     5    11    13     9 
    6     5    11    12     9 
    6     5    11    13     9 
    7     5    11    12     9 
    7     5    11    13     9 
    5    11    13    14     9 
    5    11    13    15     9 
   12    11    13    14     9 
   12    11    13    15     9 
   11    13    15    16     9 
   11    13    15    17     9 
   11    13    15    30     9 
   14    13    15    16     9 
   14    13    15    17     9 
   14    13    15    30     9 
   30    15    17    20     9    torsion_LEU_C_CA_CB_CG_mult1
   30    15    17    20     9    torsion_LEU_C_CA_CB_CG_mult2
   30    15    17    20     9    torsion_LEU_C_CA_CB_CG_mult3
   13    15    17    18     9 
   13    15    17    19     9 
   13    15    17    20     9 
   16    15    17    18     9 
   16    15    17    19     9 
   16    15    17    20     9 
   30    15    17    18     9 
   30    15    17    19     9 
   13    15    30    31     9 
   13    15    30    32     9 
   16    15    30    31     9 
   16    15    30    32     9 
   17    15    30    31     9 
   17    15    30    32     9 
   15    17    20    21     9 
   15    17    20    22     9 
   15    17    20    26     9 
   18    17    20    21     9 
   18    17    20    22     9 
   18    17    20    26     9 
   19    17    20    21     9 
   19    17    20    22     9 
   19    17    20    26     9 
   17    20    22    23     9 
   17    20    22    24     9 
   17    20    22    25     9 
   21    20    22    23     9 
   21    20    22    24     9 
   21    20    22    25     9 
   26    20    22    23     9 
   26    20    22    24     9 
   26    20    22    25     9 
   17    20    26    27     9 
   17    20    26    28     9 
   17    20    26    29     9 
   21    20    26    27     9 
   21    20    26    28     9 
   21    20    26    29     9 
   22    20    26    27     9 
   22    20    26    28     9 
   22    20    26    29     9 
   15    30    32    33     9 
   15    30    32    34     9 
   31    30    32    33     9 
   31    30    32    34     9 
   30    32    34    35     9 
   30    32    34    36     9 
   30    32    34    49     9 
   33    32    34    35     9 
   33    32    34    36     9 
   33    32    34    49     9 
   49    34    36    39     9    torsion_LEU_C_CA_CB_CG_mult1
   49    34    36    39     9    torsion_LEU_C_CA_CB_CG_mult2
   49    34    36    39     9    torsion_LEU_C_CA_CB_CG_mult3
   32    34    36    37     9 
   32    34    36    38     9 
   32    34    36    39     9 
   35    34    36    37     9 
   35    34    36    38     9 
   35    34    36    39     9 
   49    34    36    37     9 
   49    34    36    38     9 
   32    34    49    50     9 
   32    34    49    51     9 
   35    34    49    50     9 
   35    34    49    51     9 
   36    34    49    50     9 
   36    34    49    51     9 
   34    36    39    40     9 
   34    36    39    41     9 
   34    36    39    45     9 
   37    36    39    40     9 
   37    36    39    41     9 
   37    36    39    45     9 
   38    36    39    40     9 
   38    36    39    41     9 
   38    36    39    45     9 
   36    39    41    42     9 
   36    39    41    43     9 
   36    39    41    44     9 
   40    39    41    42     9 
   40    39    41    43     9 
   40    39    41    44     9 
   45    39    41    42     9 
   45    39    41    43     9 
   45    39    41    44     9 
   36    39    45    46     9 
   36    39    45    47     9 
   36    39    45    48     9 
   40    39    45    46     9 
   40    39    45    47     9 
   40    39    45    48     9 
   41    39    45    46     9 
   41    39    45    47     9 
   41    39    45    48     9 
   34    49    51    52     9 
   34    49    51    53     9 
   50    49    51    52     9 
   50    49    51    53     9 
   49    51    53    54     9 
   49    51    53    55     9 
   49    51    53    68     9 
   52    51    53    54     9 
   52    51    53    55     9 
   52    51    53    68     9 
   68    53    55    58     9    torsion_LEU_C_CA_CB_CG_mult1
   68    53    55    58     9    torsion_LEU_C_CA_CB_CG_mult2
   68    53    55    58     9    torsion_LEU_C_CA_CB_CG_mult3
   51    53    55    56     9 
   51    53    55    57     9 
   51    53    55    58     9 
   54    53    55    56     9 
   54    53    55    57     9 
   54    53    55    58     9 
   68    53    55    56     9 
   68    53    55    57     9 
   51    53    68    69     9 
   51    53    68    70     9 
   54    53    68    69     9 
   54    53    68    70     9 
   55    53    68    69     9 
   55    53    68    70     9 
   53    55    58    59     9 
   53    55    58    60     9 
   53    55    58    64     9 
   56    55    58    59     9 
   56    55    58    60     9 
   56    55    58    64     9 
   57    55    58    59     9 
   57    55    58    60     9 
   57    55    58    64     9 
   55    58    60    61     9 
   55    58    60    62     9 
   55    58    60    63     9 
   59    58    60    61     9 
   59    58    60    62     9 
   59    58    60    63     9 
   64    58    60    61     9 
   64    58    60    62     9 
   64    58    60    63     9 
   55    58    64    65     9 
   55    58    64    66     9 
   55    58    64    67     9 
   59    58    64    65     9 
   59    58    64    66     9 
   59    58    64    67     9 
   60    58    64    65     9 
   60    58    64    66     9 
   60    58    64    67     9 
   53    68    70    71     9 
   53    68    70    72     9 
   69    68    70    71     9 
   69    68    70    72     9 
   68    70    72    73     9 
   68    70    72    74     9 
   68    70    72    85     9 
   71    70    72    73     9 
   71    70    72    74     9 
   71    70    72    85     9 
   70    72    74    75     9 
   70    72    74    76     9 
   70    72    74    77     9 
   73    72    74    75     9 
   73    72    74    76     9 
   73    72    74    77     9 
   85    72    74    75     9 
   85    72    74    76     9 
   85    72    74    77     9 
   70    72    85    86     9 
   70    72    85    87     9 
   73    72    85    86     9 
   73    72    85    87     9 
   74    72    85    86     9 
   74    72    85    87     9 
   72    74    77    78     9 
   72    74    77    83     9 
   75    74    77    78     9 
   75    74    77    83     9 
   76    74    77    78     9 
   76    74    77    83     9 
   74    77    78    79     9 
   83    77    78    79     9 
   74    77    83    81     9 
   74    77    83    84     9 
   78    77    83    81     9 
   78    77    83    84     9 
   77    78    79    80     9 
   77    78    79    81     9 
   78    79    81    82     9 
   78    79    81    83     9 
   80    79    81    82     9 
   80    79    81    83     9 
   79    81    83    77     9 
   79    81    83    84     9 
   82    81    83    77     9 
   82    81    83    84     9 
   72    85    87    88     9 
   72    85    87    89     9 
   86    85    87    88     9 
   86    85    87    89     9 
   85    87    89    90     9 
   85    87    89    91     9 
   85    87    89   109     9 
   88    87    89    90     9 
   88    87    89    91     9 
   88    87    89   109     9 
   87    89    91    92     9 
   87    89    91    93     9 
   87    89    91    94     9 
   90    89    91    92     9 
   90    89    91    93     9 
   90    89    91    94     9 
  109    89    91    92     9 
  109    89    91    93     9 
  109    89    91    94     9 
   87    89   109   110     9 
   87    89   109   111     9 
   90    89   109   110     9 
   90    89   109   111     9 
   91    89   109   110     9 
   91    89   109   111     9 
   89    91    94    95     9 
   89    91    94    96     9 
   89    91    94    97     9 
   92    91    94    95     9 
   92    91    94    96     9 
   92    91    94    97     9 
   93    91    94    95     9 
   93    91    94    96     9 
   93    91    94    97     9 
   91    94    97    98     9 
   91    94    97    99     9 
   91    94    97   100     9 
   95    94    97    98     9 
   95    94    97    99     9 
   95    94    97   100     9 
   96    94    97    98     9 
   96    94    97    99     9 
   96    94    97   100     9 
   94    97   100   101     9 
   94    97   100   102     9 
   98    97   100   101     9 
   98    97   100   102     9 
   99    97   100   101     9 
   99    97   100   102     9 
   97   100   102   103     9 
   97   100   102   106     9 
  101   100   102   103     9 
  101   100   102   106     9 
  100   102   103   104     9 
  100   102   103   105     9 
  106   102   103   104     9 
  106   102   103   105     9 
  100   102   106   107     9 
  100   102   106   108     9 
  103   102   106   107     9 
  103   102   106   108     9 
   89   109   111   112     9 
   89   109   111   113     9 
  110   109   111   112     9 
  110   109   111   113     9 
  109   111   113   114     9 
  109   111   113   115     9 
  109   111   113   120     9 
  112   111   113   114     9 
  112   111   113   115     9 
  112   111   113   120     9 
  111   113   115   116     9 
  111   113   115   117     9 
  111   113   115   118     9 
  114   113   115   116     9 
  114   113   115   117     9 
  114   113   115   118     9 
  120   113   115   116     9 
  120   113   115   117     9 
  120   113   115   118     9 
  111   113   120   121     9 
  111   113   120   122     9 
  114   113   120   121     9 
  114   113   120   122     9 
  115   113   120   121     9 
  115   113   120   122     9 
  113   115   118   119     9 
  116   115   118   119     9 
  117   115   118   119     9 

[ dihedrals ]
;  ai    aj    ak    al funct            c0            c1            c2            c3
    5    13    11    12     4 
   11    15    13    14     4 
   15    32    30    31     4 
   30    34    32    33     4 
   34    51    49    50     4 
   49    53    51    52     4 
   53    70    68    69     4 
   68    72    70    71     4 
   72    87    85    86     4 
   74    77    83    78     4 
   77    81    83    84     4 
   78    81    79    80     4 
   79    83    81    82     4 
   85    89    87    88     4 
   89   111   109   110     4 
   97   102   100   101     4 
  100   103   102   106     4 
  102   104   103   105     4 
  102   107   106   108     4 
  109   113   111   112     4 
  113   121   120   122     4 

; Include Position restraint file
#ifdef POSRES
#include "posre_Protein_chain_B.itp"
#endif

