;
;	File 'topol_Protein_chain_B.itp' was generated
;	By user: BNI (-1)
;	On host: DESKTOP-IEUDGS5
;	At date: Wed Aug 12 15:04:29 2026
;
;	This is a include topology file
;
;	Created by:
;	                    :-) GROMACS - gmx pdb2gmx, 2025.1 (-:
;	
;	Executable:   F:\gromacs-2025.1-SM86\gromacs-2025.1-SM86\bin\gmx.exe
;	Data prefix:  F:\gromacs-2025.1-SM86\gromacs-2025.1-SM86
;	Working dir:  F:\0wsh\asd\gromacs_md\md_fllhttr
;	Command line:
;	  gmx pdb2gmx -f complex_clean.pdb -o complex.gro -p topol.top -i posre.itp -ff amber99sb-ildn -water tip3p -ignh
;	Force field was read from the standard GROMACS share directory.
;

[ moleculetype ]
; Name            nrexcl
Protein_chain_B     3

[ atoms ]
;   nr       type  resnr residue  atom   cgnr     charge       mass  typeB    chargeB      massB
; residue   1 PHE rtp NPHE q +1.0
     1         N3      1    PHE      N      1     0.1737      14.01
     2          H      1    PHE     H1      2     0.1921      1.008
     3          H      1    PHE     H2      3     0.1921      1.008
     4          H      1    PHE     H3      4     0.1921      1.008
     5         CT      1    PHE     CA      5     0.0733      12.01
     6         HP      1    PHE     HA      6     0.1041      1.008
     7         CT      1    PHE     CB      7      0.033      12.01
     8         HC      1    PHE    HB1      8     0.0104      1.008
     9         HC      1    PHE    HB2      9     0.0104      1.008
    10         CA      1    PHE     CG     10     0.0031      12.01
    11         CA      1    PHE    CD1     11    -0.1392      12.01
    12         HA      1    PHE    HD1     12     0.1374      1.008
    13         CA      1    PHE    CE1     13    -0.1602      12.01
    14         HA      1    PHE    HE1     14     0.1433      1.008
    15         CA      1    PHE     CZ     15    -0.1208      12.01
    16         HA      1    PHE     HZ     16     0.1329      1.008
    17         CA      1    PHE    CE2     17    -0.1603      12.01
    18         HA      1    PHE    HE2     18     0.1433      1.008
    19         CA      1    PHE    CD2     19    -0.1391      12.01
    20         HA      1    PHE    HD2     20     0.1374      1.008
    21          C      1    PHE      C     21     0.6123      12.01
    22          O      1    PHE      O     22    -0.5713         16   ; qtot 1
; residue   2 LEU rtp LEU  q  0.0
    23          N      2    LEU      N     23    -0.4157      14.01
    24          H      2    LEU      H     24     0.2719      1.008
    25         CT      2    LEU     CA     25    -0.0518      12.01
    26         H1      2    LEU     HA     26     0.0922      1.008
    27         CT      2    LEU     CB     27    -0.1102      12.01
    28         HC      2    LEU    HB1     28     0.0457      1.008
    29         HC      2    LEU    HB2     29     0.0457      1.008
    30         CT      2    LEU     CG     30     0.3531      12.01
    31         HC      2    LEU     HG     31    -0.0361      1.008
    32         CT      2    LEU    CD1     32    -0.4121      12.01
    33         HC      2    LEU   HD11     33        0.1      1.008
    34         HC      2    LEU   HD12     34        0.1      1.008
    35         HC      2    LEU   HD13     35        0.1      1.008
    36         CT      2    LEU    CD2     36    -0.4121      12.01
    37         HC      2    LEU   HD21     37        0.1      1.008
    38         HC      2    LEU   HD22     38        0.1      1.008
    39         HC      2    LEU   HD23     39        0.1      1.008
    40          C      2    LEU      C     40     0.5973      12.01
    41          O      2    LEU      O     41    -0.5679         16   ; qtot 1
; residue   3 LEU rtp LEU  q  0.0
    42          N      3    LEU      N     42    -0.4157      14.01
    43          H      3    LEU      H     43     0.2719      1.008
    44         CT      3    LEU     CA     44    -0.0518      12.01
    45         H1      3    LEU     HA     45     0.0922      1.008
    46         CT      3    LEU     CB     46    -0.1102      12.01
    47         HC      3    LEU    HB1     47     0.0457      1.008
    48         HC      3    LEU    HB2     48     0.0457      1.008
    49         CT      3    LEU     CG     49     0.3531      12.01
    50         HC      3    LEU     HG     50    -0.0361      1.008
    51         CT      3    LEU    CD1     51    -0.4121      12.01
    52         HC      3    LEU   HD11     52        0.1      1.008
    53         HC      3    LEU   HD12     53        0.1      1.008
    54         HC      3    LEU   HD13     54        0.1      1.008
    55         CT      3    LEU    CD2     55    -0.4121      12.01
    56         HC      3    LEU   HD21     56        0.1      1.008
    57         HC      3    LEU   HD22     57        0.1      1.008
    58         HC      3    LEU   HD23     58        0.1      1.008
    59          C      3    LEU      C     59     0.5973      12.01
    60          O      3    LEU      O     60    -0.5679         16   ; qtot 1
; residue   4 HIS rtp HIE  q  0.0
    61          N      4    HIS      N     61    -0.4157      14.01
    62          H      4    HIS      H     62     0.2719      1.008
    63         CT      4    HIS     CA     63    -0.0581      12.01
    64         H1      4    HIS     HA     64      0.136      1.008
    65         CT      4    HIS     CB     65    -0.0074      12.01
    66         HC      4    HIS    HB1     66     0.0367      1.008
    67         HC      4    HIS    HB2     67     0.0367      1.008
    68         CC      4    HIS     CG     68     0.1868      12.01
    69         NB      4    HIS    ND1     69    -0.5432      14.01
    70         CR      4    HIS    CE1     70     0.1635      12.01
    71         H5      4    HIS    HE1     71     0.1435      1.008
    72         NA      4    HIS    NE2     72    -0.2795      14.01
    73          H      4    HIS    HE2     73     0.3339      1.008
    74         CW      4    HIS    CD2     74    -0.2207      12.01
    75         H4      4    HIS    HD2     75     0.1862      1.008
    76          C      4    HIS      C     76     0.5973      12.01
    77          O      4    HIS      O     77    -0.5679         16   ; qtot 1
; residue   5 THR rtp THR  q  0.0
    78          N      5    THR      N     78    -0.4157      14.01
    79          H      5    THR      H     79     0.2719      1.008
    80         CT      5    THR     CA     80    -0.0389      12.01
    81         H1      5    THR     HA     81     0.1007      1.008
    82         CT      5    THR     CB     82     0.3654      12.01
    83         H1      5    THR     HB     83     0.0043      1.008
    84         CT      5    THR    CG2     84    -0.2438      12.01
    85         HC      5    THR   HG21     85     0.0642      1.008
    86         HC      5    THR   HG22     86     0.0642      1.008
    87         HC      5    THR   HG23     87     0.0642      1.008
    88         OH      5    THR    OG1     88    -0.6761         16
    89         HO      5    THR    HG1     89     0.4102      1.008
    90          C      5    THR      C     90     0.5973      12.01
    91          O      5    THR      O     91    -0.5679         16   ; qtot 1
; residue   6 THR rtp THR  q  0.0
    92          N      6    THR      N     92    -0.4157      14.01
    93          H      6    THR      H     93     0.2719      1.008
    94         CT      6    THR     CA     94    -0.0389      12.01
    95         H1      6    THR     HA     95     0.1007      1.008
    96         CT      6    THR     CB     96     0.3654      12.01
    97         H1      6    THR     HB     97     0.0043      1.008
    98         CT      6    THR    CG2     98    -0.2438      12.01
    99         HC      6    THR   HG21     99     0.0642      1.008
   100         HC      6    THR   HG22    100     0.0642      1.008
   101         HC      6    THR   HG23    101     0.0642      1.008
   102         OH      6    THR    OG1    102    -0.6761         16
   103         HO      6    THR    HG1    103     0.4102      1.008
   104          C      6    THR      C    104     0.5973      12.01
   105          O      6    THR      O    105    -0.5679         16   ; qtot 1
; residue   7 ARG rtp CARG q  0.0
   106          N      7    ARG      N    106    -0.3481      14.01
   107          H      7    ARG      H    107     0.2764      1.008
   108         CT      7    ARG     CA    108    -0.3068      12.01
   109         H1      7    ARG     HA    109     0.1447      1.008
   110         CT      7    ARG     CB    110    -0.0374      12.01
   111         HC      7    ARG    HB1    111     0.0371      1.008
   112         HC      7    ARG    HB2    112     0.0371      1.008
   113         CT      7    ARG     CG    113     0.0744      12.01
   114         HC      7    ARG    HG1    114     0.0185      1.008
   115         HC      7    ARG    HG2    115     0.0185      1.008
   116         CT      7    ARG     CD    116     0.1114      12.01
   117         H1      7    ARG    HD1    117     0.0468      1.008
   118         H1      7    ARG    HD2    118     0.0468      1.008
   119         N2      7    ARG     NE    119    -0.5564      14.01
   120          H      7    ARG     HE    120     0.3479      1.008
   121         CA      7    ARG     CZ    121     0.8368      12.01
   122         N2      7    ARG    NH1    122    -0.8737      14.01
   123          H      7    ARG   HH11    123     0.4493      1.008
   124          H      7    ARG   HH12    124     0.4493      1.008
   125         N2      7    ARG    NH2    125    -0.8737      14.01
   126          H      7    ARG   HH21    126     0.4493      1.008
   127          H      7    ARG   HH22    127     0.4493      1.008
   128          C      7    ARG      C    128     0.8557      12.01
   129         O2      7    ARG    OC1    129    -0.8266         16
   130         O2      7    ARG    OC2    130    -0.8266         16   ; qtot 1

[ bonds ]
;  ai    aj funct            c0            c1            c2            c3
    1     2     1 
    1     3     1 
    1     4     1 
    1     5     1 
    5     6     1 
    5     7     1 
    5    21     1 
    7     8     1 
    7     9     1 
    7    10     1 
   10    11     1 
   10    19     1 
   11    12     1 
   11    13     1 
   13    14     1 
   13    15     1 
   15    16     1 
   15    17     1 
   17    18     1 
   17    19     1 
   19    20     1 
   21    22     1 
   21    23     1 
   23    24     1 
   23    25     1 
   25    26     1 
   25    27     1 
   25    40     1 
   27    28     1 
   27    29     1 
   27    30     1 
   30    31     1 
   30    32     1 
   30    36     1 
   32    33     1 
   32    34     1 
   32    35     1 
   36    37     1 
   36    38     1 
   36    39     1 
   40    41     1 
   40    42     1 
   42    43     1 
   42    44     1 
   44    45     1 
   44    46     1 
   44    59     1 
   46    47     1 
   46    48     1 
   46    49     1 
   49    50     1 
   49    51     1 
   49    55     1 
   51    52     1 
   51    53     1 
   51    54     1 
   55    56     1 
   55    57     1 
   55    58     1 
   59    60     1 
   59    61     1 
   61    62     1 
   61    63     1 
   63    64     1 
   63    65     1 
   63    76     1 
   65    66     1 
   65    67     1 
   65    68     1 
   68    69     1 
   68    74     1 
   69    70     1 
   70    71     1 
   70    72     1 
   72    73     1 
   72    74     1 
   74    75     1 
   76    77     1 
   76    78     1 
   78    79     1 
   78    80     1 
   80    81     1 
   80    82     1 
   80    90     1 
   82    83     1 
   82    84     1 
   82    88     1 
   84    85     1 
   84    86     1 
   84    87     1 
   88    89     1 
   90    91     1 
   90    92     1 
   92    93     1 
   92    94     1 
   94    95     1 
   94    96     1 
   94   104     1 
   96    97     1 
   96    98     1 
   96   102     1 
   98    99     1 
   98   100     1 
   98   101     1 
  102   103     1 
  104   105     1 
  104   106     1 
  106   107     1 
  106   108     1 
  108   109     1 
  108   110     1 
  108   128     1 
  110   111     1 
  110   112     1 
  110   113     1 
  113   114     1 
  113   115     1 
  113   116     1 
  116   117     1 
  116   118     1 
  116   119     1 
  119   120     1 
  119   121     1 
  121   122     1 
  121   125     1 
  122   123     1 
  122   124     1 
  125   126     1 
  125   127     1 
  128   129     1 
  128   130     1 

[ pairs ]
;  ai    aj funct            c0            c1            c2            c3
    1     8     1 
    1     9     1 
    1    10     1 
    1    22     1 
    1    23     1 
    2     6     1 
    2     7     1 
    2    21     1 
    3     6     1 
    3     7     1 
    3    21     1 
    4     6     1 
    4     7     1 
    4    21     1 
    5    11     1 
    5    19     1 
    5    24     1 
    5    25     1 
    6     8     1 
    6     9     1 
    6    10     1 
    6    22     1 
    6    23     1 
    7    12     1 
    7    13     1 
    7    17     1 
    7    20     1 
    7    22     1 
    7    23     1 
    8    11     1 
    8    19     1 
    8    21     1 
    9    11     1 
    9    19     1 
    9    21     1 
   10    14     1 
   10    15     1 
   10    18     1 
   10    21     1 
   11    16     1 
   11    17     1 
   11    20     1 
   12    14     1 
   12    15     1 
   12    19     1 
   13    18     1 
   13    19     1 
   14    16     1 
   14    17     1 
   15    20     1 
   16    18     1 
   16    19     1 
   18    20     1 
   21    26     1 
   21    27     1 
   21    40     1 
   22    24     1 
   22    25     1 
   23    28     1 
   23    29     1 
   23    30     1 
   23    41     1 
   23    42     1 
   24    26     1 
   24    27     1 
   24    40     1 
   25    31     1 
   25    32     1 
   25    36     1 
   25    43     1 
   25    44     1 
   26    28     1 
   26    29     1 
   26    30     1 
   26    41     1 
   26    42     1 
   27    33     1 
   27    34     1 
   27    35     1 
   27    37     1 
   27    38     1 
   27    39     1 
   27    41     1 
   27    42     1 
   28    31     1 
   28    32     1 
   28    36     1 
   28    40     1 
   29    31     1 
   29    32     1 
   29    36     1 
   29    40     1 
   30    40     1 
   31    33     1 
   31    34     1 
   31    35     1 
   31    37     1 
   31    38     1 
   31    39     1 
   32    37     1 
   32    38     1 
   32    39     1 
   33    36     1 
   34    36     1 
   35    36     1 
   40    45     1 
   40    46     1 
   40    59     1 
   41    43     1 
   41    44     1 
   42    47     1 
   42    48     1 
   42    49     1 
   42    60     1 
   42    61     1 
   43    45     1 
   43    46     1 
   43    59     1 
   44    50     1 
   44    51     1 
   44    55     1 
   44    62     1 
   44    63     1 
   45    47     1 
   45    48     1 
   45    49     1 
   45    60     1 
   45    61     1 
   46    52     1 
   46    53     1 
   46    54     1 
   46    56     1 
   46    57     1 
   46    58     1 
   46    60     1 
   46    61     1 
   47    50     1 
   47    51     1 
   47    55     1 
   47    59     1 
   48    50     1 
   48    51     1 
   48    55     1 
   48    59     1 
   49    59     1 
   50    52     1 
   50    53     1 
   50    54     1 
   50    56     1 
   50    57     1 
   50    58     1 
   51    56     1 
   51    57     1 
   51    58     1 
   52    55     1 
   53    55     1 
   54    55     1 
   59    64     1 
   59    65     1 
   59    76     1 
   60    62     1 
   60    63     1 
   61    66     1 
   61    67     1 
   61    68     1 
   61    77     1 
   61    78     1 
   62    64     1 
   62    65     1 
   62    76     1 
   63    69     1 
   63    74     1 
   63    79     1 
   63    80     1 
   64    66     1 
   64    67     1 
   64    68     1 
   64    77     1 
   64    78     1 
   65    70     1 
   65    72     1 
   65    75     1 
   65    77     1 
   65    78     1 
   66    69     1 
   66    74     1 
   66    76     1 
   67    69     1 
   67    74     1 
   67    76     1 
   68    71     1 
   68    73     1 
   68    76     1 
   69    73     1 
   69    75     1 
   70    75     1 
   71    73     1 
   71    74     1 
   73    75     1 
   76    81     1 
   76    82     1 
   76    90     1 
   77    79     1 
   77    80     1 
   78    83     1 
   78    84     1 
   78    88     1 
   78    91     1 
   78    92     1 
   79    81     1 
   79    82     1 
   79    90     1 
   80    85     1 
   80    86     1 
   80    87     1 
   80    89     1 
   80    93     1 
   80    94     1 
   81    83     1 
   81    84     1 
   81    88     1 
   81    91     1 
   81    92     1 
   82    91     1 
   82    92     1 
   83    85     1 
   83    86     1 
   83    87     1 
   83    89     1 
   83    90     1 
   84    89     1 
   84    90     1 
   85    88     1 
   86    88     1 
   87    88     1 
   88    90     1 
   90    95     1 
   90    96     1 
   90   104     1 
   91    93     1 
   91    94     1 
   92    97     1 
   92    98     1 
   92   102     1 
   92   105     1 
   92   106     1 
   93    95     1 
   93    96     1 
   93   104     1 
   94    99     1 
   94   100     1 
   94   101     1 
   94   103     1 
   94   107     1 
   94   108     1 
   95    97     1 
   95    98     1 
   95   102     1 
   95   105     1 
   95   106     1 
   96   105     1 
   96   106     1 
   97    99     1 
   97   100     1 
   97   101     1 
   97   103     1 
   97   104     1 
   98   103     1 
   98   104     1 
   99   102     1 
  100   102     1 
  101   102     1 
  102   104     1 
  104   109     1 
  104   110     1 
  104   128     1 
  105   107     1 
  105   108     1 
  106   111     1 
  106   112     1 
  106   113     1 
  106   129     1 
  106   130     1 
  107   109     1 
  107   110     1 
  107   128     1 
  108   114     1 
  108   115     1 
  108   116     1 
  109   111     1 
  109   112     1 
  109   113     1 
  109   129     1 
  109   130     1 
  110   117     1 
  110   118     1 
  110   119     1 
  110   129     1 
  110   130     1 
  111   114     1 
  111   115     1 
  111   116     1 
  111   128     1 
  112   114     1 
  112   115     1 
  112   116     1 
  112   128     1 
  113   120     1 
  113   121     1 
  113   128     1 
  114   117     1 
  114   118     1 
  114   119     1 
  115   117     1 
  115   118     1 
  115   119     1 
  116   122     1 
  116   125     1 
  117   120     1 
  117   121     1 
  118   120     1 
  118   121     1 
  119   123     1 
  119   124     1 
  119   126     1 
  119   127     1 
  120   122     1 
  120   125     1 
  122   126     1 
  122   127     1 
  123   125     1 
  124   125     1 

[ angles ]
;  ai    aj    ak funct            c0            c1            c2            c3
    2     1     3     1 
    2     1     4     1 
    2     1     5     1 
    3     1     4     1 
    3     1     5     1 
    4     1     5     1 
    1     5     6     1 
    1     5     7     1 
    1     5    21     1 
    6     5     7     1 
    6     5    21     1 
    7     5    21     1 
    5     7     8     1 
    5     7     9     1 
    5     7    10     1 
    8     7     9     1 
    8     7    10     1 
    9     7    10     1 
    7    10    11     1 
    7    10    19     1 
   11    10    19     1 
   10    11    12     1 
   10    11    13     1 
   12    11    13     1 
   11    13    14     1 
   11    13    15     1 
   14    13    15     1 
   13    15    16     1 
   13    15    17     1 
   16    15    17     1 
   15    17    18     1 
   15    17    19     1 
   18    17    19     1 
   10    19    17     1 
   10    19    20     1 
   17    19    20     1 
    5    21    22     1 
    5    21    23     1 
   22    21    23     1 
   21    23    24     1 
   21    23    25     1 
   24    23    25     1 
   23    25    26     1 
   23    25    27     1 
   23    25    40     1 
   26    25    27     1 
   26    25    40     1 
   27    25    40     1 
   25    27    28     1 
   25    27    29     1 
   25    27    30     1 
   28    27    29     1 
   28    27    30     1 
   29    27    30     1 
   27    30    31     1 
   27    30    32     1 
   27    30    36     1 
   31    30    32     1 
   31    30    36     1 
   32    30    36     1 
   30    32    33     1 
   30    32    34     1 
   30    32    35     1 
   33    32    34     1 
   33    32    35     1 
   34    32    35     1 
   30    36    37     1 
   30    36    38     1 
   30    36    39     1 
   37    36    38     1 
   37    36    39     1 
   38    36    39     1 
   25    40    41     1 
   25    40    42     1 
   41    40    42     1 
   40    42    43     1 
   40    42    44     1 
   43    42    44     1 
   42    44    45     1 
   42    44    46     1 
   42    44    59     1 
   45    44    46     1 
   45    44    59     1 
   46    44    59     1 
   44    46    47     1 
   44    46    48     1 
   44    46    49     1 
   47    46    48     1 
   47    46    49     1 
   48    46    49     1 
   46    49    50     1 
   46    49    51     1 
   46    49    55     1 
   50    49    51     1 
   50    49    55     1 
   51    49    55     1 
   49    51    52     1 
   49    51    53     1 
   49    51    54     1 
   52    51    53     1 
   52    51    54     1 
   53    51    54     1 
   49    55    56     1 
   49    55    57     1 
   49    55    58     1 
   56    55    57     1 
   56    55    58     1 
   57    55    58     1 
   44    59    60     1 
   44    59    61     1 
   60    59    61     1 
   59    61    62     1 
   59    61    63     1 
   62    61    63     1 
   61    63    64     1 
   61    63    65     1 
   61    63    76     1 
   64    63    65     1 
   64    63    76     1 
   65    63    76     1 
   63    65    66     1 
   63    65    67     1 
   63    65    68     1 
   66    65    67     1 
   66    65    68     1 
   67    65    68     1 
   65    68    69     1 
   65    68    74     1 
   69    68    74     1 
   68    69    70     1 
   69    70    71     1 
   69    70    72     1 
   71    70    72     1 
   70    72    73     1 
   70    72    74     1 
   73    72    74     1 
   68    74    72     1 
   68    74    75     1 
   72    74    75     1 
   63    76    77     1 
   63    76    78     1 
   77    76    78     1 
   76    78    79     1 
   76    78    80     1 
   79    78    80     1 
   78    80    81     1 
   78    80    82     1 
   78    80    90     1 
   81    80    82     1 
   81    80    90     1 
   82    80    90     1 
   80    82    83     1 
   80    82    84     1 
   80    82    88     1 
   83    82    84     1 
   83    82    88     1 
   84    82    88     1 
   82    84    85     1 
   82    84    86     1 
   82    84    87     1 
   85    84    86     1 
   85    84    87     1 
   86    84    87     1 
   82    88    89     1 
   80    90    91     1 
   80    90    92     1 
   91    90    92     1 
   90    92    93     1 
   90    92    94     1 
   93    92    94     1 
   92    94    95     1 
   92    94    96     1 
   92    94   104     1 
   95    94    96     1 
   95    94   104     1 
   96    94   104     1 
   94    96    97     1 
   94    96    98     1 
   94    96   102     1 
   97    96    98     1 
   97    96   102     1 
   98    96   102     1 
   96    98    99     1 
   96    98   100     1 
   96    98   101     1 
   99    98   100     1 
   99    98   101     1 
  100    98   101     1 
   96   102   103     1 
   94   104   105     1 
   94   104   106     1 
  105   104   106     1 
  104   106   107     1 
  104   106   108     1 
  107   106   108     1 
  106   108   109     1 
  106   108   110     1 
  106   108   128     1 
  109   108   110     1 
  109   108   128     1 
  110   108   128     1 
  108   110   111     1 
  108   110   112     1 
  108   110   113     1 
  111   110   112     1 
  111   110   113     1 
  112   110   113     1 
  110   113   114     1 
  110   113   115     1 
  110   113   116     1 
  114   113   115     1 
  114   113   116     1 
  115   113   116     1 
  113   116   117     1 
  113   116   118     1 
  113   116   119     1 
  117   116   118     1 
  117   116   119     1 
  118   116   119     1 
  116   119   120     1 
  116   119   121     1 
  120   119   121     1 
  119   121   122     1 
  119   121   125     1 
  122   121   125     1 
  121   122   123     1 
  121   122   124     1 
  123   122   124     1 
  121   125   126     1 
  121   125   127     1 
  126   125   127     1 
  108   128   129     1 
  108   128   130     1 
  129   128   130     1 

[ dihedrals ]
;  ai    aj    ak    al funct            c0            c1            c2            c3            c4            c5
    2     1     5     6     9 
    2     1     5     7     9 
    2     1     5    21     9 
    3     1     5     6     9 
    3     1     5     7     9 
    3     1     5    21     9 
    4     1     5     6     9 
    4     1     5     7     9 
    4     1     5    21     9 
    1     5     7     8     9 
    1     5     7     9     9 
    1     5     7    10     9 
    6     5     7     8     9 
    6     5     7     9     9 
    6     5     7    10     9 
   21     5     7     8     9 
   21     5     7     9     9 
   21     5     7    10     9 
    1     5    21    22     9 
    1     5    21    23     9 
    6     5    21    22     9 
    6     5    21    23     9 
    7     5    21    22     9 
    7     5    21    23     9 
    5     7    10    11     9 
    5     7    10    19     9 
    8     7    10    11     9 
    8     7    10    19     9 
    9     7    10    11     9 
    9     7    10    19     9 
    7    10    11    12     9 
    7    10    11    13     9 
   19    10    11    12     9 
   19    10    11    13     9 
    7    10    19    17     9 
    7    10    19    20     9 
   11    10    19    17     9 
   11    10    19    20     9 
   10    11    13    14     9 
   10    11    13    15     9 
   12    11    13    14     9 
   12    11    13    15     9 
   11    13    15    16     9 
   11    13    15    17     9 
   14    13    15    16     9 
   14    13    15    17     9 
   13    15    17    18     9 
   13    15    17    19     9 
   16    15    17    18     9 
   16    15    17    19     9 
   15    17    19    10     9 
   15    17    19    20     9 
   18    17    19    10     9 
   18    17    19    20     9 
    5    21    23    24     9 
    5    21    23    25     9 
   22    21    23    24     9 
   22    21    23    25     9 
   21    23    25    26     9 
   21    23    25    27     9 
   21    23    25    40     9 
   24    23    25    26     9 
   24    23    25    27     9 
   24    23    25    40     9 
   40    25    27    30     9    torsion_LEU_C_CA_CB_CG_mult1
   40    25    27    30     9    torsion_LEU_C_CA_CB_CG_mult2
   40    25    27    30     9    torsion_LEU_C_CA_CB_CG_mult3
   23    25    27    28     9 
   23    25    27    29     9 
   23    25    27    30     9 
   26    25    27    28     9 
   26    25    27    29     9 
   26    25    27    30     9 
   40    25    27    28     9 
   40    25    27    29     9 
   23    25    40    41     9 
   23    25    40    42     9 
   26    25    40    41     9 
   26    25    40    42     9 
   27    25    40    41     9 
   27    25    40    42     9 
   25    27    30    31     9 
   25    27    30    32     9 
   25    27    30    36     9 
   28    27    30    31     9 
   28    27    30    32     9 
   28    27    30    36     9 
   29    27    30    31     9 
   29    27    30    32     9 
   29    27    30    36     9 
   27    30    32    33     9 
   27    30    32    34     9 
   27    30    32    35     9 
   31    30    32    33     9 
   31    30    32    34     9 
   31    30    32    35     9 
   36    30    32    33     9 
   36    30    32    34     9 
   36    30    32    35     9 
   27    30    36    37     9 
   27    30    36    38     9 
   27    30    36    39     9 
   31    30    36    37     9 
   31    30    36    38     9 
   31    30    36    39     9 
   32    30    36    37     9 
   32    30    36    38     9 
   32    30    36    39     9 
   25    40    42    43     9 
   25    40    42    44     9 
   41    40    42    43     9 
   41    40    42    44     9 
   40    42    44    45     9 
   40    42    44    46     9 
   40    42    44    59     9 
   43    42    44    45     9 
   43    42    44    46     9 
   43    42    44    59     9 
   59    44    46    49     9    torsion_LEU_C_CA_CB_CG_mult1
   59    44    46    49     9    torsion_LEU_C_CA_CB_CG_mult2
   59    44    46    49     9    torsion_LEU_C_CA_CB_CG_mult3
   42    44    46    47     9 
   42    44    46    48     9 
   42    44    46    49     9 
   45    44    46    47     9 
   45    44    46    48     9 
   45    44    46    49     9 
   59    44    46    47     9 
   59    44    46    48     9 
   42    44    59    60     9 
   42    44    59    61     9 
   45    44    59    60     9 
   45    44    59    61     9 
   46    44    59    60     9 
   46    44    59    61     9 
   44    46    49    50     9 
   44    46    49    51     9 
   44    46    49    55     9 
   47    46    49    50     9 
   47    46    49    51     9 
   47    46    49    55     9 
   48    46    49    50     9 
   48    46    49    51     9 
   48    46    49    55     9 
   46    49    51    52     9 
   46    49    51    53     9 
   46    49    51    54     9 
   50    49    51    52     9 
   50    49    51    53     9 
   50    49    51    54     9 
   55    49    51    52     9 
   55    49    51    53     9 
   55    49    51    54     9 
   46    49    55    56     9 
   46    49    55    57     9 
   46    49    55    58     9 
   50    49    55    56     9 
   50    49    55    57     9 
   50    49    55    58     9 
   51    49    55    56     9 
   51    49    55    57     9 
   51    49    55    58     9 
   44    59    61    62     9 
   44    59    61    63     9 
   60    59    61    62     9 
   60    59    61    63     9 
   59    61    63    64     9 
   59    61    63    65     9 
   59    61    63    76     9 
   62    61    63    64     9 
   62    61    63    65     9 
   62    61    63    76     9 
   61    63    65    66     9 
   61    63    65    67     9 
   61    63    65    68     9 
   64    63    65    66     9 
   64    63    65    67     9 
   64    63    65    68     9 
   76    63    65    66     9 
   76    63    65    67     9 
   76    63    65    68     9 
   61    63    76    77     9 
   61    63    76    78     9 
   64    63    76    77     9 
   64    63    76    78     9 
   65    63    76    77     9 
   65    63    76    78     9 
   63    65    68    69     9 
   63    65    68    74     9 
   66    65    68    69     9 
   66    65    68    74     9 
   67    65    68    69     9 
   67    65    68    74     9 
   65    68    69    70     9 
   74    68    69    70     9 
   65    68    74    72     9 
   65    68    74    75     9 
   69    68    74    72     9 
   69    68    74    75     9 
   68    69    70    71     9 
   68    69    70    72     9 
   69    70    72    73     9 
   69    70    72    74     9 
   71    70    72    73     9 
   71    70    72    74     9 
   70    72    74    68     9 
   70    72    74    75     9 
   73    72    74    68     9 
   73    72    74    75     9 
   63    76    78    79     9 
   63    76    78    80     9 
   77    76    78    79     9 
   77    76    78    80     9 
   76    78    80    81     9 
   76    78    80    82     9 
   76    78    80    90     9 
   79    78    80    81     9 
   79    78    80    82     9 
   79    78    80    90     9 
   78    80    82    83     9 
   78    80    82    84     9 
   78    80    82    88     9 
   81    80    82    83     9 
   81    80    82    84     9 
   81    80    82    88     9 
   90    80    82    83     9 
   90    80    82    84     9 
   90    80    82    88     9 
   78    80    90    91     9 
   78    80    90    92     9 
   81    80    90    91     9 
   81    80    90    92     9 
   82    80    90    91     9 
   82    80    90    92     9 
   80    82    84    85     9 
   80    82    84    86     9 
   80    82    84    87     9 
   83    82    84    85     9 
   83    82    84    86     9 
   83    82    84    87     9 
   88    82    84    85     9 
   88    82    84    86     9 
   88    82    84    87     9 
   80    82    88    89     9 
   83    82    88    89     9 
   84    82    88    89     9 
   80    90    92    93     9 
   80    90    92    94     9 
   91    90    92    93     9 
   91    90    92    94     9 
   90    92    94    95     9 
   90    92    94    96     9 
   90    92    94   104     9 
   93    92    94    95     9 
   93    92    94    96     9 
   93    92    94   104     9 
   92    94    96    97     9 
   92    94    96    98     9 
   92    94    96   102     9 
   95    94    96    97     9 
   95    94    96    98     9 
   95    94    96   102     9 
  104    94    96    97     9 
  104    94    96    98     9 
  104    94    96   102     9 
   92    94   104   105     9 
   92    94   104   106     9 
   95    94   104   105     9 
   95    94   104   106     9 
   96    94   104   105     9 
   96    94   104   106     9 
   94    96    98    99     9 
   94    96    98   100     9 
   94    96    98   101     9 
   97    96    98    99     9 
   97    96    98   100     9 
   97    96    98   101     9 
  102    96    98    99     9 
  102    96    98   100     9 
  102    96    98   101     9 
   94    96   102   103     9 
   97    96   102   103     9 
   98    96   102   103     9 
   94   104   106   107     9 
   94   104   106   108     9 
  105   104   106   107     9 
  105   104   106   108     9 
  104   106   108   109     9 
  104   106   108   110     9 
  104   106   108   128     9 
  107   106   108   109     9 
  107   106   108   110     9 
  107   106   108   128     9 
  106   108   110   111     9 
  106   108   110   112     9 
  106   108   110   113     9 
  109   108   110   111     9 
  109   108   110   112     9 
  109   108   110   113     9 
  128   108   110   111     9 
  128   108   110   112     9 
  128   108   110   113     9 
  106   108   128   129     9 
  106   108   128   130     9 
  109   108   128   129     9 
  109   108   128   130     9 
  110   108   128   129     9 
  110   108   128   130     9 
  108   110   113   114     9 
  108   110   113   115     9 
  108   110   113   116     9 
  111   110   113   114     9 
  111   110   113   115     9 
  111   110   113   116     9 
  112   110   113   114     9 
  112   110   113   115     9 
  112   110   113   116     9 
  110   113   116   117     9 
  110   113   116   118     9 
  110   113   116   119     9 
  114   113   116   117     9 
  114   113   116   118     9 
  114   113   116   119     9 
  115   113   116   117     9 
  115   113   116   118     9 
  115   113   116   119     9 
  113   116   119   120     9 
  113   116   119   121     9 
  117   116   119   120     9 
  117   116   119   121     9 
  118   116   119   120     9 
  118   116   119   121     9 
  116   119   121   122     9 
  116   119   121   125     9 
  120   119   121   122     9 
  120   119   121   125     9 
  119   121   122   123     9 
  119   121   122   124     9 
  125   121   122   123     9 
  125   121   122   124     9 
  119   121   125   126     9 
  119   121   125   127     9 
  122   121   125   126     9 
  122   121   125   127     9 

[ dihedrals ]
;  ai    aj    ak    al funct            c0            c1            c2            c3
    5    23    21    22     4 
    7    10    19    11     4 
   10    13    11    12     4 
   10    17    19    20     4 
   11    15    13    14     4 
   13    17    15    16     4 
   15    19    17    18     4 
   21    25    23    24     4 
   25    42    40    41     4 
   40    44    42    43     4 
   44    61    59    60     4 
   59    63    61    62     4 
   63    78    76    77     4 
   65    68    74    69     4 
   68    72    74    75     4 
   69    72    70    71     4 
   70    74    72    73     4 
   76    80    78    79     4 
   80    92    90    91     4 
   90    94    92    93     4 
   94   106   104   105     4 
  104   108   106   107     4 
  108   129   128   130     4 
  116   121   119   120     4 
  119   122   121   125     4 
  121   123   122   124     4 
  121   126   125   127     4 

; Include Position restraint file
#ifdef POSRES
#include "posre_Protein_chain_B.itp"
#endif

